PSF EXT CMAP CHEQ XPLOR

         3 !NTITLE
* GENERATED BY CHARMM-GUI (HTTP://WWW.CHARMM-GUI.ORG) V3.1 ON OCT, 03. 2020. JOB
* GET A DIFFERENT CONFORMATION FOR LIPIDS PENETRATING PROTEIN / CHOL            
*  DATE:    10/ 3/20     19:14:22      CREATED BY USER: apache                  

     24916 !NATOM
         1 MEMB     1        QMPE     N        NH3L    -0.300000       14.0070           0   0.00000     -0.301140E-02
         2 MEMB     1        QMPE     HN1      HCL      0.330000       1.00800           0   0.00000     -0.301140E-02
         3 MEMB     1        QMPE     HN2      HCL      0.330000       1.00800           0   0.00000     -0.301140E-02
         4 MEMB     1        QMPE     HN3      HCL      0.330000       1.00800           0   0.00000     -0.301140E-02
         5 MEMB     1        QMPE     C12      CTL2     0.130000       12.0110           0   0.00000     -0.301140E-02
         6 MEMB     1        QMPE     H12A     HAL2     0.900000E-01   1.00800           0   0.00000     -0.301140E-02
         7 MEMB     1        QMPE     H12B     HAL2     0.900000E-01   1.00800           0   0.00000     -0.301140E-02
         8 MEMB     1        QMPE     C11      CTL2    -0.800000E-01   12.0110           0   0.00000     -0.301140E-02
         9 MEMB     1        QMPE     H11A     HAL2     0.900000E-01   1.00800           0   0.00000     -0.301140E-02
        10 MEMB     1        QMPE     H11B     HAL2     0.900000E-01   1.00800           0   0.00000     -0.301140E-02
        11 MEMB     1        QMPE     P        PL        1.50000       30.9740           0   0.00000     -0.301140E-02
        12 MEMB     1        QMPE     O13      O2L     -0.780000       15.9994           0   0.00000     -0.301140E-02
        13 MEMB     1        QMPE     O14      O2L     -0.780000       15.9994           0   0.00000     -0.301140E-02
        14 MEMB     1        QMPE     O11      OSLP    -0.570000       15.9994           0   0.00000     -0.301140E-02
        15 MEMB     1        QMPE     O12      OSLP    -0.570000       15.9994           0   0.00000     -0.301140E-02
        16 MEMB     1        QMPE     C1       CTL2    -0.800000E-01   12.0110           0   0.00000     -0.301140E-02
        17 MEMB     1        QMPE     HA       HAL2     0.900000E-01   1.00800           0   0.00000     -0.301140E-02
        18 MEMB     1        QMPE     HB       HAL2     0.900000E-01   1.00800           0   0.00000     -0.301140E-02
        19 MEMB     1        QMPE     C2       CTL1     0.170000       12.0110           0   0.00000     -0.301140E-02
        20 MEMB     1        QMPE     HS       HAL1     0.900000E-01   1.00800           0   0.00000     -0.301140E-02
        21 MEMB     1        QMPE     O21      OSL     -0.490000       15.9994           0   0.00000     -0.301140E-02
        22 MEMB     1        QMPE     C21      CL       0.900000       12.0110           0   0.00000     -0.301140E-02
        23 MEMB     1        QMPE     O22      OBL     -0.630000       15.9994           0   0.00000     -0.301140E-02
        24 MEMB     1        QMPE     C22      CTL2    -0.220000       12.0110           0   0.00000     -0.301140E-02
        25 MEMB     1        QMPE     H2R      HAL2     0.900000E-01   1.00800           0   0.00000     -0.301140E-02
        26 MEMB     1        QMPE     H2S      HAL2     0.900000E-01   1.00800           0   0.00000     -0.301140E-02
        27 MEMB     1        QMPE     C3       CTL2     0.800000E-01   12.0110           0   0.00000     -0.301140E-02
        28 MEMB     1        QMPE     HX       HAL2     0.900000E-01   1.00800           0   0.00000     -0.301140E-02
        29 MEMB     1        QMPE     HY       HAL2     0.900000E-01   1.00800           0   0.00000     -0.301140E-02
        30 MEMB     1        QMPE     O31      OSL     -0.490000       15.9994           0   0.00000     -0.301140E-02
        31 MEMB     1        QMPE     C31      CL       0.900000       12.0110           0   0.00000     -0.301140E-02
        32 MEMB     1        QMPE     O32      OBL     -0.630000       15.9994           0   0.00000     -0.301140E-02
        33 MEMB     1        QMPE     C32      CTL2    -0.220000       12.0110           0   0.00000     -0.301140E-02
        34 MEMB     1        QMPE     H2X      HAL2     0.900000E-01   1.00800           0   0.00000     -0.301140E-02
        35 MEMB     1        QMPE     H2Y      HAL2     0.900000E-01   1.00800           0   0.00000     -0.301140E-02
        36 MEMB     1        QMPE     C23      CTL2    -0.180000       12.0110           0   0.00000     -0.301140E-02
        37 MEMB     1        QMPE     H3R      HAL2     0.900000E-01   1.00800           0   0.00000     -0.301140E-02
        38 MEMB     1        QMPE     H3S      HAL2     0.900000E-01   1.00800           0   0.00000     -0.301140E-02
        39 MEMB     1        QMPE     C24      CTL2    -0.180000       12.0110           0   0.00000     -0.301140E-02
        40 MEMB     1        QMPE     H4R      HAL2     0.900000E-01   1.00800           0   0.00000     -0.301140E-02
        41 MEMB     1        QMPE     H4S      HAL2     0.900000E-01   1.00800           0   0.00000     -0.301140E-02
        42 MEMB     1        QMPE     C25      CTL2    -0.180000       12.0110           0   0.00000     -0.301140E-02
        43 MEMB     1        QMPE     H5R      HAL2     0.900000E-01   1.00800           0   0.00000     -0.301140E-02
        44 MEMB     1        QMPE     H5S      HAL2     0.900000E-01   1.00800           0   0.00000     -0.301140E-02
        45 MEMB     1        QMPE     C26      CTL2    -0.180000       12.0110           0   0.00000     -0.301140E-02
        46 MEMB     1        QMPE     H6R      HAL2     0.900000E-01   1.00800           0   0.00000     -0.301140E-02
        47 MEMB     1        QMPE     H6S      HAL2     0.900000E-01   1.00800           0   0.00000     -0.301140E-02
        48 MEMB     1        QMPE     C27      CTL2    -0.180000       12.0110           0   0.00000     -0.301140E-02
        49 MEMB     1        QMPE     H7R      HAL2     0.900000E-01   1.00800           0   0.00000     -0.301140E-02
        50 MEMB     1        QMPE     H7S      HAL2     0.900000E-01   1.00800           0   0.00000     -0.301140E-02
        51 MEMB     1        QMPE     C28      CTL2    -0.180000       12.0110           0   0.00000     -0.301140E-02
        52 MEMB     1        QMPE     H8R      HAL2     0.900000E-01   1.00800           0   0.00000     -0.301140E-02
        53 MEMB     1        QMPE     H8S      HAL2     0.900000E-01   1.00800           0   0.00000     -0.301140E-02
        54 MEMB     1        QMPE     C29      CG3RC1  -0.900000E-01   12.0110           0   0.00000     -0.301140E-02
        55 MEMB     1        QMPE     H9R      HGA1     0.900000E-01   1.00800           0   0.00000     -0.301140E-02
        56 MEMB     1        QMPE     C217     CG3C31  -0.180000       12.0110           0   0.00000     -0.301140E-02
        57 MEMB     1        QMPE     H17R     HGA2     0.900000E-01   1.00800           0   0.00000     -0.301140E-02
        58 MEMB     1        QMPE     H17S     HGA2     0.900000E-01   1.00800           0   0.00000     -0.301140E-02
        59 MEMB     1        QMPE     C210     CG3RC1  -0.900000E-01   12.0110           0   0.00000     -0.301140E-02
        60 MEMB     1        QMPE     H10R     HGA1     0.900000E-01   1.00800           0   0.00000     -0.301140E-02
        61 MEMB     1        QMPE     C211     CTL2    -0.180000       12.0110           0   0.00000     -0.301140E-02
        62 MEMB     1        QMPE     H11R     HAL2     0.900000E-01   1.00800           0   0.00000     -0.301140E-02
        63 MEMB     1        QMPE     H11S     HAL2     0.900000E-01   1.00800           0   0.00000     -0.301140E-02
        64 MEMB     1        QMPE     C212     CTL2    -0.180000       12.0110           0   0.00000     -0.301140E-02
        65 MEMB     1        QMPE     H12R     HAL2     0.900000E-01   1.00800           0   0.00000     -0.301140E-02
        66 MEMB     1        QMPE     H12S     HAL2     0.900000E-01   1.00800           0   0.00000     -0.301140E-02
        67 MEMB     1        QMPE     C213     CTL2    -0.180000       12.0110           0   0.00000     -0.301140E-02
        68 MEMB     1        QMPE     H13R     HAL2     0.900000E-01   1.00800           0   0.00000     -0.301140E-02
        69 MEMB     1        QMPE     H13S     HAL2     0.900000E-01   1.00800           0   0.00000     -0.301140E-02
        70 MEMB     1        QMPE     C214     CTL2    -0.180000       12.0110           0   0.00000     -0.301140E-02
        71 MEMB     1        QMPE     H14R     HAL2     0.900000E-01   1.00800           0   0.00000     -0.301140E-02
        72 MEMB     1        QMPE     H14S     HAL2     0.900000E-01   1.00800           0   0.00000     -0.301140E-02
        73 MEMB     1        QMPE     C215     CTL2    -0.180000       12.0110           0   0.00000     -0.301140E-02
        74 MEMB     1        QMPE     H15R     HAL2     0.900000E-01   1.00800           0   0.00000     -0.301140E-02
        75 MEMB     1        QMPE     H15S     HAL2     0.900000E-01   1.00800           0   0.00000     -0.301140E-02
        76 MEMB     1        QMPE     C216     CTL3    -0.270000       12.0110           0   0.00000     -0.301140E-02
        77 MEMB     1        QMPE     H16R     HAL3     0.900000E-01   1.00800           0   0.00000     -0.301140E-02
        78 MEMB     1        QMPE     H16S     HAL3     0.900000E-01   1.00800           0   0.00000     -0.301140E-02
        79 MEMB     1        QMPE     H16T     HAL3     0.900000E-01   1.00800           0   0.00000     -0.301140E-02
        80 MEMB     1        QMPE     C33      CTL2    -0.180000       12.0110           0   0.00000     -0.301140E-02
        81 MEMB     1        QMPE     H3X      HAL2     0.900000E-01   1.00800           0   0.00000     -0.301140E-02
        82 MEMB     1        QMPE     H3Y      HAL2     0.900000E-01   1.00800           0   0.00000     -0.301140E-02
        83 MEMB     1        QMPE     C34      CTL2    -0.180000       12.0110           0   0.00000     -0.301140E-02
        84 MEMB     1        QMPE     H4X      HAL2     0.900000E-01   1.00800           0   0.00000     -0.301140E-02
        85 MEMB     1        QMPE     H4Y      HAL2     0.900000E-01   1.00800           0   0.00000     -0.301140E-02
        86 MEMB     1        QMPE     C35      CTL2    -0.180000       12.0110           0   0.00000     -0.301140E-02
        87 MEMB     1        QMPE     H5X      HAL2     0.900000E-01   1.00800           0   0.00000     -0.301140E-02
        88 MEMB     1        QMPE     H5Y      HAL2     0.900000E-01   1.00800           0   0.00000     -0.301140E-02
        89 MEMB     1        QMPE     C36      CTL2    -0.180000       12.0110           0   0.00000     -0.301140E-02
        90 MEMB     1        QMPE     H6X      HAL2     0.900000E-01   1.00800           0   0.00000     -0.301140E-02
        91 MEMB     1        QMPE     H6Y      HAL2     0.900000E-01   1.00800           0   0.00000     -0.301140E-02
        92 MEMB     1        QMPE     C37      CTL2    -0.180000       12.0110           0   0.00000     -0.301140E-02
        93 MEMB     1        QMPE     H7X      HAL2     0.900000E-01   1.00800           0   0.00000     -0.301140E-02
        94 MEMB     1        QMPE     H7Y      HAL2     0.900000E-01   1.00800           0   0.00000     -0.301140E-02
        95 MEMB     1        QMPE     C38      CTL2    -0.180000       12.0110           0   0.00000     -0.301140E-02
        96 MEMB     1        QMPE     H8X      HAL2     0.900000E-01   1.00800           0   0.00000     -0.301140E-02
        97 MEMB     1        QMPE     H8Y      HAL2     0.900000E-01   1.00800           0   0.00000     -0.301140E-02
        98 MEMB     1        QMPE     C39      CTL2    -0.180000       12.0110           0   0.00000     -0.301140E-02
        99 MEMB     1        QMPE     H9X      HAL2     0.900000E-01   1.00800           0   0.00000     -0.301140E-02
       100 MEMB     1        QMPE     H9Y      HAL2     0.900000E-01   1.00800           0   0.00000     -0.301140E-02
       101 MEMB     1        QMPE     C310     CTL2    -0.180000       12.0110           0   0.00000     -0.301140E-02
       102 MEMB     1        QMPE     H10X     HAL2     0.900000E-01   1.00800           0   0.00000     -0.301140E-02
       103 MEMB     1        QMPE     H10Y     HAL2     0.900000E-01   1.00800           0   0.00000     -0.301140E-02
       104 MEMB     1        QMPE     C311     CTL2    -0.180000       12.0110           0   0.00000     -0.301140E-02
       105 MEMB     1        QMPE     H11X     HAL2     0.900000E-01   1.00800           0   0.00000     -0.301140E-02
       106 MEMB     1        QMPE     H11Y     HAL2     0.900000E-01   1.00800           0   0.00000     -0.301140E-02
       107 MEMB     1        QMPE     C312     CTL2    -0.180000       12.0110           0   0.00000     -0.301140E-02
       108 MEMB     1        QMPE     H12X     HAL2     0.900000E-01   1.00800           0   0.00000     -0.301140E-02
       109 MEMB     1        QMPE     H12Y     HAL2     0.900000E-01   1.00800           0   0.00000     -0.301140E-02
       110 MEMB     1        QMPE     C313     CTL2    -0.180000       12.0110           0   0.00000     -0.301140E-02
       111 MEMB     1        QMPE     H13X     HAL2     0.900000E-01   1.00800           0   0.00000     -0.301140E-02
       112 MEMB     1        QMPE     H13Y     HAL2     0.900000E-01   1.00800           0   0.00000     -0.301140E-02
       113 MEMB     1        QMPE     C314     CTL2    -0.180000       12.0110           0   0.00000     -0.301140E-02
       114 MEMB     1        QMPE     H14X     HAL2     0.900000E-01   1.00800           0   0.00000     -0.301140E-02
       115 MEMB     1        QMPE     H14Y     HAL2     0.900000E-01   1.00800           0   0.00000     -0.301140E-02
       116 MEMB     1        QMPE     C315     CTL3    -0.270000       12.0110           0   0.00000     -0.301140E-02
       117 MEMB     1        QMPE     H15X     HAL3     0.900000E-01   1.00800           0   0.00000     -0.301140E-02
       118 MEMB     1        QMPE     H15Y     HAL3     0.900000E-01   1.00800           0   0.00000     -0.301140E-02
       119 MEMB     1        QMPE     H15Z     HAL3     0.900000E-01   1.00800           0   0.00000     -0.301140E-02
       120 MEMB     2        PMPE     N        NH3L    -0.300000       14.0070           0   0.00000     -0.301140E-02
       121 MEMB     2        PMPE     HN1      HCL      0.330000       1.00800           0   0.00000     -0.301140E-02
       122 MEMB     2        PMPE     HN2      HCL      0.330000       1.00800           0   0.00000     -0.301140E-02
       123 MEMB     2        PMPE     HN3      HCL      0.330000       1.00800           0   0.00000     -0.301140E-02
       124 MEMB     2        PMPE     C12      CTL2     0.130000       12.0110           0   0.00000     -0.301140E-02
       125 MEMB     2        PMPE     H12A     HAL2     0.900000E-01   1.00800           0   0.00000     -0.301140E-02
       126 MEMB     2        PMPE     H12B     HAL2     0.900000E-01   1.00800           0   0.00000     -0.301140E-02
       127 MEMB     2        PMPE     C11      CTL2    -0.800000E-01   12.0110           0   0.00000     -0.301140E-02
       128 MEMB     2        PMPE     H11A     HAL2     0.900000E-01   1.00800           0   0.00000     -0.301140E-02
       129 MEMB     2        PMPE     H11B     HAL2     0.900000E-01   1.00800           0   0.00000     -0.301140E-02
       130 MEMB     2        PMPE     P        PL        1.50000       30.9740           0   0.00000     -0.301140E-02
       131 MEMB     2        PMPE     O13      O2L     -0.780000       15.9994           0   0.00000     -0.301140E-02
       132 MEMB     2        PMPE     O14      O2L     -0.780000       15.9994           0   0.00000     -0.301140E-02
       133 MEMB     2        PMPE     O11      OSLP    -0.570000       15.9994           0   0.00000     -0.301140E-02
       134 MEMB     2        PMPE     O12      OSLP    -0.570000       15.9994           0   0.00000     -0.301140E-02
       135 MEMB     2        PMPE     C1       CTL2    -0.800000E-01   12.0110           0   0.00000     -0.301140E-02
       136 MEMB     2        PMPE     HA       HAL2     0.900000E-01   1.00800           0   0.00000     -0.301140E-02
       137 MEMB     2        PMPE     HB       HAL2     0.900000E-01   1.00800           0   0.00000     -0.301140E-02
       138 MEMB     2        PMPE     C2       CTL1     0.170000       12.0110           0   0.00000     -0.301140E-02
       139 MEMB     2        PMPE     HS       HAL1     0.900000E-01   1.00800           0   0.00000     -0.301140E-02
       140 MEMB     2        PMPE     O21      OSL     -0.490000       15.9994           0   0.00000     -0.301140E-02
       141 MEMB     2        PMPE     C21      CL       0.900000       12.0110           0   0.00000     -0.301140E-02
       142 MEMB     2        PMPE     O22      OBL     -0.630000       15.9994           0   0.00000     -0.301140E-02
       143 MEMB     2        PMPE     C22      CTL2    -0.220000       12.0110           0   0.00000     -0.301140E-02
       144 MEMB     2        PMPE     H2R      HAL2     0.900000E-01   1.00800           0   0.00000     -0.301140E-02
       145 MEMB     2        PMPE     H2S      HAL2     0.900000E-01   1.00800           0   0.00000     -0.301140E-02
       146 MEMB     2        PMPE     C3       CTL2     0.800000E-01   12.0110           0   0.00000     -0.301140E-02
       147 MEMB     2        PMPE     HX       HAL2     0.900000E-01   1.00800           0   0.00000     -0.301140E-02
       148 MEMB     2        PMPE     HY       HAL2     0.900000E-01   1.00800           0   0.00000     -0.301140E-02
       149 MEMB     2        PMPE     O31      OSL     -0.490000       15.9994           0   0.00000     -0.301140E-02
       150 MEMB     2        PMPE     C31      CL       0.900000       12.0110           0   0.00000     -0.301140E-02
       151 MEMB     2        PMPE     O32      OBL     -0.630000       15.9994           0   0.00000     -0.301140E-02
       152 MEMB     2        PMPE     C32      CTL2    -0.220000       12.0110           0   0.00000     -0.301140E-02
       153 MEMB     2        PMPE     H2X      HAL2     0.900000E-01   1.00800           0   0.00000     -0.301140E-02
       154 MEMB     2        PMPE     H2Y      HAL2     0.900000E-01   1.00800           0   0.00000     -0.301140E-02
       155 MEMB     2        PMPE     C23      CTL2    -0.180000       12.0110           0   0.00000     -0.301140E-02
       156 MEMB     2        PMPE     H3R      HAL2     0.900000E-01   1.00800           0   0.00000     -0.301140E-02
       157 MEMB     2        PMPE     H3S      HAL2     0.900000E-01   1.00800           0   0.00000     -0.301140E-02
       158 MEMB     2        PMPE     C24      CTL2    -0.180000       12.0110           0   0.00000     -0.301140E-02
       159 MEMB     2        PMPE     H4R      HAL2     0.900000E-01   1.00800           0   0.00000     -0.301140E-02
       160 MEMB     2        PMPE     H4S      HAL2     0.900000E-01   1.00800           0   0.00000     -0.301140E-02
       161 MEMB     2        PMPE     C25      CTL2    -0.180000       12.0110           0   0.00000     -0.301140E-02
       162 MEMB     2        PMPE     H5R      HAL2     0.900000E-01   1.00800           0   0.00000     -0.301140E-02
       163 MEMB     2        PMPE     H5S      HAL2     0.900000E-01   1.00800           0   0.00000     -0.301140E-02
       164 MEMB     2        PMPE     C26      CTL2    -0.180000       12.0110           0   0.00000     -0.301140E-02
       165 MEMB     2        PMPE     H6R      HAL2     0.900000E-01   1.00800           0   0.00000     -0.301140E-02
       166 MEMB     2        PMPE     H6S      HAL2     0.900000E-01   1.00800           0   0.00000     -0.301140E-02
       167 MEMB     2        PMPE     C27      CTL2    -0.180000       12.0110           0   0.00000     -0.301140E-02
       168 MEMB     2        PMPE     H7R      HAL2     0.900000E-01   1.00800           0   0.00000     -0.301140E-02
       169 MEMB     2        PMPE     H7S      HAL2     0.900000E-01   1.00800           0   0.00000     -0.301140E-02
       170 MEMB     2        PMPE     C28      CTL2    -0.180000       12.0110           0   0.00000     -0.301140E-02
       171 MEMB     2        PMPE     H8R      HAL2     0.900000E-01   1.00800           0   0.00000     -0.301140E-02
       172 MEMB     2        PMPE     H8S      HAL2     0.900000E-01   1.00800           0   0.00000     -0.301140E-02
       173 MEMB     2        PMPE     C29      CG3RC1  -0.900000E-01   12.0110           0   0.00000     -0.301140E-02
       174 MEMB     2        PMPE     H9R      HGA1     0.900000E-01   1.00800           0   0.00000     -0.301140E-02
       175 MEMB     2        PMPE     C217     CG3C31  -0.180000       12.0110           0   0.00000     -0.301140E-02
       176 MEMB     2        PMPE     H17R     HGA2     0.900000E-01   1.00800           0   0.00000     -0.301140E-02
       177 MEMB     2        PMPE     H17S     HGA2     0.900000E-01   1.00800           0   0.00000     -0.301140E-02
       178 MEMB     2        PMPE     C210     CG3RC1  -0.900000E-01   12.0110           0   0.00000     -0.301140E-02
       179 MEMB     2        PMPE     H10R     HGA1     0.900000E-01   1.00800           0   0.00000     -0.301140E-02
       180 MEMB     2        PMPE     C211     CTL2    -0.180000       12.0110           0   0.00000     -0.301140E-02
       181 MEMB     2        PMPE     H11R     HAL2     0.900000E-01   1.00800           0   0.00000     -0.301140E-02
       182 MEMB     2        PMPE     H11S     HAL2     0.900000E-01   1.00800           0   0.00000     -0.301140E-02
       183 MEMB     2        PMPE     C212     CTL2    -0.180000       12.0110           0   0.00000     -0.301140E-02
       184 MEMB     2        PMPE     H12R     HAL2     0.900000E-01   1.00800           0   0.00000     -0.301140E-02
       185 MEMB     2        PMPE     H12S     HAL2     0.900000E-01   1.00800           0   0.00000     -0.301140E-02
       186 MEMB     2        PMPE     C213     CTL2    -0.180000       12.0110           0   0.00000     -0.301140E-02
       187 MEMB     2        PMPE     H13R     HAL2     0.900000E-01   1.00800           0   0.00000     -0.301140E-02
       188 MEMB     2        PMPE     H13S     HAL2     0.900000E-01   1.00800           0   0.00000     -0.301140E-02
       189 MEMB     2        PMPE     C214     CTL2    -0.180000       12.0110           0   0.00000     -0.301140E-02
       190 MEMB     2        PMPE     H14R     HAL2     0.900000E-01   1.00800           0   0.00000     -0.301140E-02
       191 MEMB     2        PMPE     H14S     HAL2     0.900000E-01   1.00800           0   0.00000     -0.301140E-02
       192 MEMB     2        PMPE     C215     CTL2    -0.180000       12.0110           0   0.00000     -0.301140E-02
       193 MEMB     2        PMPE     H15R     HAL2     0.900000E-01   1.00800           0   0.00000     -0.301140E-02
       194 MEMB     2        PMPE     H15S     HAL2     0.900000E-01   1.00800           0   0.00000     -0.301140E-02
       195 MEMB     2        PMPE     C216     CTL3    -0.270000       12.0110           0   0.00000     -0.301140E-02
       196 MEMB     2        PMPE     H16R     HAL3     0.900000E-01   1.00800           0   0.00000     -0.301140E-02
       197 MEMB     2        PMPE     H16S     HAL3     0.900000E-01   1.00800           0   0.00000     -0.301140E-02
       198 MEMB     2        PMPE     H16T     HAL3     0.900000E-01   1.00800           0   0.00000     -0.301140E-02
       199 MEMB     2        PMPE     C33      CTL2    -0.180000       12.0110           0   0.00000     -0.301140E-02
       200 MEMB     2        PMPE     H3X      HAL2     0.900000E-01   1.00800           0   0.00000     -0.301140E-02
       201 MEMB     2        PMPE     H3Y      HAL2     0.900000E-01   1.00800           0   0.00000     -0.301140E-02
       202 MEMB     2        PMPE     C34      CTL2    -0.180000       12.0110           0   0.00000     -0.301140E-02
       203 MEMB     2        PMPE     H4X      HAL2     0.900000E-01   1.00800           0   0.00000     -0.301140E-02
       204 MEMB     2        PMPE     H4Y      HAL2     0.900000E-01   1.00800           0   0.00000     -0.301140E-02
       205 MEMB     2        PMPE     C35      CTL2    -0.180000       12.0110           0   0.00000     -0.301140E-02
       206 MEMB     2        PMPE     H5X      HAL2     0.900000E-01   1.00800           0   0.00000     -0.301140E-02
       207 MEMB     2        PMPE     H5Y      HAL2     0.900000E-01   1.00800           0   0.00000     -0.301140E-02
       208 MEMB     2        PMPE     C36      CTL2    -0.180000       12.0110           0   0.00000     -0.301140E-02
       209 MEMB     2        PMPE     H6X      HAL2     0.900000E-01   1.00800           0   0.00000     -0.301140E-02
       210 MEMB     2        PMPE     H6Y      HAL2     0.900000E-01   1.00800           0   0.00000     -0.301140E-02
       211 MEMB     2        PMPE     C37      CTL2    -0.180000       12.0110           0   0.00000     -0.301140E-02
       212 MEMB     2        PMPE     H7X      HAL2     0.900000E-01   1.00800           0   0.00000     -0.301140E-02
       213 MEMB     2        PMPE     H7Y      HAL2     0.900000E-01   1.00800           0   0.00000     -0.301140E-02
       214 MEMB     2        PMPE     C38      CTL2    -0.180000       12.0110           0   0.00000     -0.301140E-02
       215 MEMB     2        PMPE     H8X      HAL2     0.900000E-01   1.00800           0   0.00000     -0.301140E-02
       216 MEMB     2        PMPE     H8Y      HAL2     0.900000E-01   1.00800           0   0.00000     -0.301140E-02
       217 MEMB     2        PMPE     C39      CTL2    -0.180000       12.0110           0   0.00000     -0.301140E-02
       218 MEMB     2        PMPE     H9X      HAL2     0.900000E-01   1.00800           0   0.00000     -0.301140E-02
       219 MEMB     2        PMPE     H9Y      HAL2     0.900000E-01   1.00800           0   0.00000     -0.301140E-02
       220 MEMB     2        PMPE     C310     CTL2    -0.180000       12.0110           0   0.00000     -0.301140E-02
       221 MEMB     2        PMPE     H10X     HAL2     0.900000E-01   1.00800           0   0.00000     -0.301140E-02
       222 MEMB     2        PMPE     H10Y     HAL2     0.900000E-01   1.00800           0   0.00000     -0.301140E-02
       223 MEMB     2        PMPE     C311     CTL2    -0.180000       12.0110           0   0.00000     -0.301140E-02
       224 MEMB     2        PMPE     H11X     HAL2     0.900000E-01   1.00800           0   0.00000     -0.301140E-02
       225 MEMB     2        PMPE     H11Y     HAL2     0.900000E-01   1.00800           0   0.00000     -0.301140E-02
       226 MEMB     2        PMPE     C312     CTL2    -0.180000       12.0110           0   0.00000     -0.301140E-02
       227 MEMB     2        PMPE     H12X     HAL2     0.900000E-01   1.00800           0   0.00000     -0.301140E-02
       228 MEMB     2        PMPE     H12Y     HAL2     0.900000E-01   1.00800           0   0.00000     -0.301140E-02
       229 MEMB     2        PMPE     C313     CTL2    -0.180000       12.0110           0   0.00000     -0.301140E-02
       230 MEMB     2        PMPE     H13X     HAL2     0.900000E-01   1.00800           0   0.00000     -0.301140E-02
       231 MEMB     2        PMPE     H13Y     HAL2     0.900000E-01   1.00800           0   0.00000     -0.301140E-02
       232 MEMB     2        PMPE     C314     CTL2    -0.180000       12.0110           0   0.00000     -0.301140E-02
       233 MEMB     2        PMPE     H14X     HAL2     0.900000E-01   1.00800           0   0.00000     -0.301140E-02
       234 MEMB     2        PMPE     H14Y     HAL2     0.900000E-01   1.00800           0   0.00000     -0.301140E-02
       235 MEMB     2        PMPE     C315     CTL2    -0.180000       12.0110           0   0.00000     -0.301140E-02
       236 MEMB     2        PMPE     H15X     HAL2     0.900000E-01   1.00800           0   0.00000     -0.301140E-02
       237 MEMB     2        PMPE     H15Y     HAL2     0.900000E-01   1.00800           0   0.00000     -0.301140E-02
       238 MEMB     2        PMPE     C316     CTL3    -0.270000       12.0110           0   0.00000     -0.301140E-02
       239 MEMB     2        PMPE     H16X     HAL3     0.900000E-01   1.00800           0   0.00000     -0.301140E-02
       240 MEMB     2        PMPE     H16Y     HAL3     0.900000E-01   1.00800           0   0.00000     -0.301140E-02
       241 MEMB     2        PMPE     H16Z     HAL3     0.900000E-01   1.00800           0   0.00000     -0.301140E-02
       242 MEMB     3        PYPG     C13      CTL2     0.500000E-01   12.0110           0   0.00000     -0.301140E-02
       243 MEMB     3        PYPG     H13A     HAL2     0.900000E-01   1.00800           0   0.00000     -0.301140E-02
       244 MEMB     3        PYPG     H13B     HAL2     0.900000E-01   1.00800           0   0.00000     -0.301140E-02
       245 MEMB     3        PYPG     OC3      OHL     -0.660000       15.9994           0   0.00000     -0.301140E-02
       246 MEMB     3        PYPG     HO3      HOL      0.430000       1.00800           0   0.00000     -0.301140E-02
       247 MEMB     3        PYPG     C12      CTL1     0.140000       12.0110           0   0.00000     -0.301140E-02
       248 MEMB     3        PYPG     H12A     HAL1     0.900000E-01   1.00800           0   0.00000     -0.301140E-02
       249 MEMB     3        PYPG     OC2      OHL     -0.660000       15.9994           0   0.00000     -0.301140E-02
       250 MEMB     3        PYPG     HO2      HOL      0.430000       1.00800           0   0.00000     -0.301140E-02
       251 MEMB     3        PYPG     C11      CTL2    -0.800000E-01   12.0110           0   0.00000     -0.301140E-02
       252 MEMB     3        PYPG     H11A     HAL2     0.900000E-01   1.00800           0   0.00000     -0.301140E-02
       253 MEMB     3        PYPG     H11B     HAL2     0.900000E-01   1.00800           0   0.00000     -0.301140E-02
       254 MEMB     3        PYPG     P        PL        1.50000       30.9740           0   0.00000     -0.301140E-02
       255 MEMB     3        PYPG     O13      O2L     -0.780000       15.9994           0   0.00000     -0.301140E-02
       256 MEMB     3        PYPG     O14      O2L     -0.780000       15.9994           0   0.00000     -0.301140E-02
       257 MEMB     3        PYPG     O11      OSLP    -0.570000       15.9994           0   0.00000     -0.301140E-02
       258 MEMB     3        PYPG     O12      OSLP    -0.570000       15.9994           0   0.00000     -0.301140E-02
       259 MEMB     3        PYPG     C1       CTL2    -0.800000E-01   12.0110           0   0.00000     -0.301140E-02
       260 MEMB     3        PYPG     HA       HAL2     0.900000E-01   1.00800           0   0.00000     -0.301140E-02
       261 MEMB     3        PYPG     HB       HAL2     0.900000E-01   1.00800           0   0.00000     -0.301140E-02
       262 MEMB     3        PYPG     C2       CTL1     0.170000       12.0110           0   0.00000     -0.301140E-02
       263 MEMB     3        PYPG     HS       HAL1     0.900000E-01   1.00800           0   0.00000     -0.301140E-02
       264 MEMB     3        PYPG     O21      OSL     -0.490000       15.9994           0   0.00000     -0.301140E-02
       265 MEMB     3        PYPG     C21      CL       0.900000       12.0110           0   0.00000     -0.301140E-02
       266 MEMB     3        PYPG     O22      OBL     -0.630000       15.9994           0   0.00000     -0.301140E-02
       267 MEMB     3        PYPG     C22      CTL2    -0.220000       12.0110           0   0.00000     -0.301140E-02
       268 MEMB     3        PYPG     H2R      HAL2     0.900000E-01   1.00800           0   0.00000     -0.301140E-02
       269 MEMB     3        PYPG     H2S      HAL2     0.900000E-01   1.00800           0   0.00000     -0.301140E-02
       270 MEMB     3        PYPG     C3       CTL2     0.800000E-01   12.0110           0   0.00000     -0.301140E-02
       271 MEMB     3        PYPG     HX       HAL2     0.900000E-01   1.00800           0   0.00000     -0.301140E-02
       272 MEMB     3        PYPG     HY       HAL2     0.900000E-01   1.00800           0   0.00000     -0.301140E-02
       273 MEMB     3        PYPG     O31      OSL     -0.490000       15.9994           0   0.00000     -0.301140E-02
       274 MEMB     3        PYPG     C31      CL       0.900000       12.0110           0   0.00000     -0.301140E-02
       275 MEMB     3        PYPG     O32      OBL     -0.630000       15.9994           0   0.00000     -0.301140E-02
       276 MEMB     3        PYPG     C32      CTL2    -0.220000       12.0110           0   0.00000     -0.301140E-02
       277 MEMB     3        PYPG     H2X      HAL2     0.900000E-01   1.00800           0   0.00000     -0.301140E-02
       278 MEMB     3        PYPG     H2Y      HAL2     0.900000E-01   1.00800           0   0.00000     -0.301140E-02
       279 MEMB     3        PYPG     C23      CTL2    -0.180000       12.0110           0   0.00000     -0.301140E-02
       280 MEMB     3        PYPG     H3R      HAL2     0.900000E-01   1.00800           0   0.00000     -0.301140E-02
       281 MEMB     3        PYPG     H3S      HAL2     0.900000E-01   1.00800           0   0.00000     -0.301140E-02
       282 MEMB     3        PYPG     C24      CTL2    -0.180000       12.0110           0   0.00000     -0.301140E-02
       283 MEMB     3        PYPG     H4R      HAL2     0.900000E-01   1.00800           0   0.00000     -0.301140E-02
       284 MEMB     3        PYPG     H4S      HAL2     0.900000E-01   1.00800           0   0.00000     -0.301140E-02
       285 MEMB     3        PYPG     C25      CTL2    -0.180000       12.0110           0   0.00000     -0.301140E-02
       286 MEMB     3        PYPG     H5R      HAL2     0.900000E-01   1.00800           0   0.00000     -0.301140E-02
       287 MEMB     3        PYPG     H5S      HAL2     0.900000E-01   1.00800           0   0.00000     -0.301140E-02
       288 MEMB     3        PYPG     C26      CTL2    -0.180000       12.0110           0   0.00000     -0.301140E-02
       289 MEMB     3        PYPG     H6R      HAL2     0.900000E-01   1.00800           0   0.00000     -0.301140E-02
       290 MEMB     3        PYPG     H6S      HAL2     0.900000E-01   1.00800           0   0.00000     -0.301140E-02
       291 MEMB     3        PYPG     C27      CTL2    -0.180000       12.0110           0   0.00000     -0.301140E-02
       292 MEMB     3        PYPG     H7R      HAL2     0.900000E-01   1.00800           0   0.00000     -0.301140E-02
       293 MEMB     3        PYPG     H7S      HAL2     0.900000E-01   1.00800           0   0.00000     -0.301140E-02
       294 MEMB     3        PYPG     C28      CTL2    -0.180000       12.0110           0   0.00000     -0.301140E-02
       295 MEMB     3        PYPG     H8R      HAL2     0.900000E-01   1.00800           0   0.00000     -0.301140E-02
       296 MEMB     3        PYPG     H8S      HAL2     0.900000E-01   1.00800           0   0.00000     -0.301140E-02
       297 MEMB     3        PYPG     C29      CEL1    -0.150000       12.0110           0   0.00000     -0.301140E-02
       298 MEMB     3        PYPG     H9R      HEL1     0.150000       1.00800           0   0.00000     -0.301140E-02
       299 MEMB     3        PYPG     C210     CEL1    -0.150000       12.0110           0   0.00000     -0.301140E-02
       300 MEMB     3        PYPG     H10R     HEL1     0.150000       1.00800           0   0.00000     -0.301140E-02
       301 MEMB     3        PYPG     C211     CTL2    -0.180000       12.0110           0   0.00000     -0.301140E-02
       302 MEMB     3        PYPG     H11R     HAL2     0.900000E-01   1.00800           0   0.00000     -0.301140E-02
       303 MEMB     3        PYPG     H11S     HAL2     0.900000E-01   1.00800           0   0.00000     -0.301140E-02
       304 MEMB     3        PYPG     C212     CTL2    -0.180000       12.0110           0   0.00000     -0.301140E-02
       305 MEMB     3        PYPG     H12R     HAL2     0.900000E-01   1.00800           0   0.00000     -0.301140E-02
       306 MEMB     3        PYPG     H12S     HAL2     0.900000E-01   1.00800           0   0.00000     -0.301140E-02
       307 MEMB     3        PYPG     C213     CTL2    -0.180000       12.0110           0   0.00000     -0.301140E-02
       308 MEMB     3        PYPG     H13R     HAL2     0.900000E-01   1.00800           0   0.00000     -0.301140E-02
       309 MEMB     3        PYPG     H13S     HAL2     0.900000E-01   1.00800           0   0.00000     -0.301140E-02
       310 MEMB     3        PYPG     C214     CTL2    -0.180000       12.0110           0   0.00000     -0.301140E-02
       311 MEMB     3        PYPG     H14R     HAL2     0.900000E-01   1.00800           0   0.00000     -0.301140E-02
       312 MEMB     3        PYPG     H14S     HAL2     0.900000E-01   1.00800           0   0.00000     -0.301140E-02
       313 MEMB     3        PYPG     C215     CTL2    -0.180000       12.0110           0   0.00000     -0.301140E-02
       314 MEMB     3        PYPG     H15R     HAL2     0.900000E-01   1.00800           0   0.00000     -0.301140E-02
       315 MEMB     3        PYPG     H15S     HAL2     0.900000E-01   1.00800           0   0.00000     -0.301140E-02
       316 MEMB     3        PYPG     C216     CTL3    -0.270000       12.0110           0   0.00000     -0.301140E-02
       317 MEMB     3        PYPG     H16R     HAL3     0.900000E-01   1.00800           0   0.00000     -0.301140E-02
       318 MEMB     3        PYPG     H16S     HAL3     0.900000E-01   1.00800           0   0.00000     -0.301140E-02
       319 MEMB     3        PYPG     H16T     HAL3     0.900000E-01   1.00800           0   0.00000     -0.301140E-02
       320 MEMB     3        PYPG     C33      CTL2    -0.180000       12.0110           0   0.00000     -0.301140E-02
       321 MEMB     3        PYPG     H3X      HAL2     0.900000E-01   1.00800           0   0.00000     -0.301140E-02
       322 MEMB     3        PYPG     H3Y      HAL2     0.900000E-01   1.00800           0   0.00000     -0.301140E-02
       323 MEMB     3        PYPG     C34      CTL2    -0.180000       12.0110           0   0.00000     -0.301140E-02
       324 MEMB     3        PYPG     H4X      HAL2     0.900000E-01   1.00800           0   0.00000     -0.301140E-02
       325 MEMB     3        PYPG     H4Y      HAL2     0.900000E-01   1.00800           0   0.00000     -0.301140E-02
       326 MEMB     3        PYPG     C35      CTL2    -0.180000       12.0110           0   0.00000     -0.301140E-02
       327 MEMB     3        PYPG     H5X      HAL2     0.900000E-01   1.00800           0   0.00000     -0.301140E-02
       328 MEMB     3        PYPG     H5Y      HAL2     0.900000E-01   1.00800           0   0.00000     -0.301140E-02
       329 MEMB     3        PYPG     C36      CTL2    -0.180000       12.0110           0   0.00000     -0.301140E-02
       330 MEMB     3        PYPG     H6X      HAL2     0.900000E-01   1.00800           0   0.00000     -0.301140E-02
       331 MEMB     3        PYPG     H6Y      HAL2     0.900000E-01   1.00800           0   0.00000     -0.301140E-02
       332 MEMB     3        PYPG     C37      CTL2    -0.180000       12.0110           0   0.00000     -0.301140E-02
       333 MEMB     3        PYPG     H7X      HAL2     0.900000E-01   1.00800           0   0.00000     -0.301140E-02
       334 MEMB     3        PYPG     H7Y      HAL2     0.900000E-01   1.00800           0   0.00000     -0.301140E-02
       335 MEMB     3        PYPG     C38      CTL2    -0.180000       12.0110           0   0.00000     -0.301140E-02
       336 MEMB     3        PYPG     H8X      HAL2     0.900000E-01   1.00800           0   0.00000     -0.301140E-02
       337 MEMB     3        PYPG     H8Y      HAL2     0.900000E-01   1.00800           0   0.00000     -0.301140E-02
       338 MEMB     3        PYPG     C39      CTL2    -0.180000       12.0110           0   0.00000     -0.301140E-02
       339 MEMB     3        PYPG     H9X      HAL2     0.900000E-01   1.00800           0   0.00000     -0.301140E-02
       340 MEMB     3        PYPG     H9Y      HAL2     0.900000E-01   1.00800           0   0.00000     -0.301140E-02
       341 MEMB     3        PYPG     C310     CTL2    -0.180000       12.0110           0   0.00000     -0.301140E-02
       342 MEMB     3        PYPG     H10X     HAL2     0.900000E-01   1.00800           0   0.00000     -0.301140E-02
       343 MEMB     3        PYPG     H10Y     HAL2     0.900000E-01   1.00800           0   0.00000     -0.301140E-02
       344 MEMB     3        PYPG     C311     CTL2    -0.180000       12.0110           0   0.00000     -0.301140E-02
       345 MEMB     3        PYPG     H11X     HAL2     0.900000E-01   1.00800           0   0.00000     -0.301140E-02
       346 MEMB     3        PYPG     H11Y     HAL2     0.900000E-01   1.00800           0   0.00000     -0.301140E-02
       347 MEMB     3        PYPG     C312     CTL2    -0.180000       12.0110           0   0.00000     -0.301140E-02
       348 MEMB     3        PYPG     H12X     HAL2     0.900000E-01   1.00800           0   0.00000     -0.301140E-02
       349 MEMB     3        PYPG     H12Y     HAL2     0.900000E-01   1.00800           0   0.00000     -0.301140E-02
       350 MEMB     3        PYPG     C313     CTL2    -0.180000       12.0110           0   0.00000     -0.301140E-02
       351 MEMB     3        PYPG     H13X     HAL2     0.900000E-01   1.00800           0   0.00000     -0.301140E-02
       352 MEMB     3        PYPG     H13Y     HAL2     0.900000E-01   1.00800           0   0.00000     -0.301140E-02
       353 MEMB     3        PYPG     C314     CTL2    -0.180000       12.0110           0   0.00000     -0.301140E-02
       354 MEMB     3        PYPG     H14X     HAL2     0.900000E-01   1.00800           0   0.00000     -0.301140E-02
       355 MEMB     3        PYPG     H14Y     HAL2     0.900000E-01   1.00800           0   0.00000     -0.301140E-02
       356 MEMB     3        PYPG     C315     CTL2    -0.180000       12.0110           0   0.00000     -0.301140E-02
       357 MEMB     3        PYPG     H15X     HAL2     0.900000E-01   1.00800           0   0.00000     -0.301140E-02
       358 MEMB     3        PYPG     H15Y     HAL2     0.900000E-01   1.00800           0   0.00000     -0.301140E-02
       359 MEMB     3        PYPG     C316     CTL3    -0.270000       12.0110           0   0.00000     -0.301140E-02
       360 MEMB     3        PYPG     H16X     HAL3     0.900000E-01   1.00800           0   0.00000     -0.301140E-02
       361 MEMB     3        PYPG     H16Y     HAL3     0.900000E-01   1.00800           0   0.00000     -0.301140E-02
       362 MEMB     3        PYPG     H16Z     HAL3     0.900000E-01   1.00800           0   0.00000     -0.301140E-02
       363 MEMB     4        PMPG     C13      CTL2     0.500000E-01   12.0110           0   0.00000     -0.301140E-02
       364 MEMB     4        PMPG     H13A     HAL2     0.900000E-01   1.00800           0   0.00000     -0.301140E-02
       365 MEMB     4        PMPG     H13B     HAL2     0.900000E-01   1.00800           0   0.00000     -0.301140E-02
       366 MEMB     4        PMPG     OC3      OHL     -0.660000       15.9994           0   0.00000     -0.301140E-02
       367 MEMB     4        PMPG     HO3      HOL      0.430000       1.00800           0   0.00000     -0.301140E-02
       368 MEMB     4        PMPG     C12      CTL1     0.140000       12.0110           0   0.00000     -0.301140E-02
       369 MEMB     4        PMPG     H12A     HAL1     0.900000E-01   1.00800           0   0.00000     -0.301140E-02
       370 MEMB     4        PMPG     OC2      OHL     -0.660000       15.9994           0   0.00000     -0.301140E-02
       371 MEMB     4        PMPG     HO2      HOL      0.430000       1.00800           0   0.00000     -0.301140E-02
       372 MEMB     4        PMPG     C11      CTL2    -0.800000E-01   12.0110           0   0.00000     -0.301140E-02
       373 MEMB     4        PMPG     H11A     HAL2     0.900000E-01   1.00800           0   0.00000     -0.301140E-02
       374 MEMB     4        PMPG     H11B     HAL2     0.900000E-01   1.00800           0   0.00000     -0.301140E-02
       375 MEMB     4        PMPG     P        PL        1.50000       30.9740           0   0.00000     -0.301140E-02
       376 MEMB     4        PMPG     O13      O2L     -0.780000       15.9994           0   0.00000     -0.301140E-02
       377 MEMB     4        PMPG     O14      O2L     -0.780000       15.9994           0   0.00000     -0.301140E-02
       378 MEMB     4        PMPG     O11      OSLP    -0.570000       15.9994           0   0.00000     -0.301140E-02
       379 MEMB     4        PMPG     O12      OSLP    -0.570000       15.9994           0   0.00000     -0.301140E-02
       380 MEMB     4        PMPG     C1       CTL2    -0.800000E-01   12.0110           0   0.00000     -0.301140E-02
       381 MEMB     4        PMPG     HA       HAL2     0.900000E-01   1.00800           0   0.00000     -0.301140E-02
       382 MEMB     4        PMPG     HB       HAL2     0.900000E-01   1.00800           0   0.00000     -0.301140E-02
       383 MEMB     4        PMPG     C2       CTL1     0.170000       12.0110           0   0.00000     -0.301140E-02
       384 MEMB     4        PMPG     HS       HAL1     0.900000E-01   1.00800           0   0.00000     -0.301140E-02
       385 MEMB     4        PMPG     O21      OSL     -0.490000       15.9994           0   0.00000     -0.301140E-02
       386 MEMB     4        PMPG     C21      CL       0.900000       12.0110           0   0.00000     -0.301140E-02
       387 MEMB     4        PMPG     O22      OBL     -0.630000       15.9994           0   0.00000     -0.301140E-02
       388 MEMB     4        PMPG     C22      CTL2    -0.220000       12.0110           0   0.00000     -0.301140E-02
       389 MEMB     4        PMPG     H2R      HAL2     0.900000E-01   1.00800           0   0.00000     -0.301140E-02
       390 MEMB     4        PMPG     H2S      HAL2     0.900000E-01   1.00800           0   0.00000     -0.301140E-02
       391 MEMB     4        PMPG     C3       CTL2     0.800000E-01   12.0110           0   0.00000     -0.301140E-02
       392 MEMB     4        PMPG     HX       HAL2     0.900000E-01   1.00800           0   0.00000     -0.301140E-02
       393 MEMB     4        PMPG     HY       HAL2     0.900000E-01   1.00800           0   0.00000     -0.301140E-02
       394 MEMB     4        PMPG     O31      OSL     -0.490000       15.9994           0   0.00000     -0.301140E-02
       395 MEMB     4        PMPG     C31      CL       0.900000       12.0110           0   0.00000     -0.301140E-02
       396 MEMB     4        PMPG     O32      OBL     -0.630000       15.9994           0   0.00000     -0.301140E-02
       397 MEMB     4        PMPG     C32      CTL2    -0.220000       12.0110           0   0.00000     -0.301140E-02
       398 MEMB     4        PMPG     H2X      HAL2     0.900000E-01   1.00800           0   0.00000     -0.301140E-02
       399 MEMB     4        PMPG     H2Y      HAL2     0.900000E-01   1.00800           0   0.00000     -0.301140E-02
       400 MEMB     4        PMPG     C23      CTL2    -0.180000       12.0110           0   0.00000     -0.301140E-02
       401 MEMB     4        PMPG     H3R      HAL2     0.900000E-01   1.00800           0   0.00000     -0.301140E-02
       402 MEMB     4        PMPG     H3S      HAL2     0.900000E-01   1.00800           0   0.00000     -0.301140E-02
       403 MEMB     4        PMPG     C24      CTL2    -0.180000       12.0110           0   0.00000     -0.301140E-02
       404 MEMB     4        PMPG     H4R      HAL2     0.900000E-01   1.00800           0   0.00000     -0.301140E-02
       405 MEMB     4        PMPG     H4S      HAL2     0.900000E-01   1.00800           0   0.00000     -0.301140E-02
       406 MEMB     4        PMPG     C25      CTL2    -0.180000       12.0110           0   0.00000     -0.301140E-02
       407 MEMB     4        PMPG     H5R      HAL2     0.900000E-01   1.00800           0   0.00000     -0.301140E-02
       408 MEMB     4        PMPG     H5S      HAL2     0.900000E-01   1.00800           0   0.00000     -0.301140E-02
       409 MEMB     4        PMPG     C26      CTL2    -0.180000       12.0110           0   0.00000     -0.301140E-02
       410 MEMB     4        PMPG     H6R      HAL2     0.900000E-01   1.00800           0   0.00000     -0.301140E-02
       411 MEMB     4        PMPG     H6S      HAL2     0.900000E-01   1.00800           0   0.00000     -0.301140E-02
       412 MEMB     4        PMPG     C27      CTL2    -0.180000       12.0110           0   0.00000     -0.301140E-02
       413 MEMB     4        PMPG     H7R      HAL2     0.900000E-01   1.00800           0   0.00000     -0.301140E-02
       414 MEMB     4        PMPG     H7S      HAL2     0.900000E-01   1.00800           0   0.00000     -0.301140E-02
       415 MEMB     4        PMPG     C28      CTL2    -0.180000       12.0110           0   0.00000     -0.301140E-02
       416 MEMB     4        PMPG     H8R      HAL2     0.900000E-01   1.00800           0   0.00000     -0.301140E-02
       417 MEMB     4        PMPG     H8S      HAL2     0.900000E-01   1.00800           0   0.00000     -0.301140E-02
       418 MEMB     4        PMPG     C29      CG3RC1  -0.900000E-01   12.0110           0   0.00000     -0.301140E-02
       419 MEMB     4        PMPG     H9R      HGA1     0.900000E-01   1.00800           0   0.00000     -0.301140E-02
       420 MEMB     4        PMPG     C217     CG3C31  -0.180000       12.0110           0   0.00000     -0.301140E-02
       421 MEMB     4        PMPG     H17R     HGA2     0.900000E-01   1.00800           0   0.00000     -0.301140E-02
       422 MEMB     4        PMPG     H17S     HGA2     0.900000E-01   1.00800           0   0.00000     -0.301140E-02
       423 MEMB     4        PMPG     C210     CG3RC1  -0.900000E-01   12.0110           0   0.00000     -0.301140E-02
       424 MEMB     4        PMPG     H10R     HGA1     0.900000E-01   1.00800           0   0.00000     -0.301140E-02
       425 MEMB     4        PMPG     C211     CTL2    -0.180000       12.0110           0   0.00000     -0.301140E-02
       426 MEMB     4        PMPG     H11R     HAL2     0.900000E-01   1.00800           0   0.00000     -0.301140E-02
       427 MEMB     4        PMPG     H11S     HAL2     0.900000E-01   1.00800           0   0.00000     -0.301140E-02
       428 MEMB     4        PMPG     C212     CTL2    -0.180000       12.0110           0   0.00000     -0.301140E-02
       429 MEMB     4        PMPG     H12R     HAL2     0.900000E-01   1.00800           0   0.00000     -0.301140E-02
       430 MEMB     4        PMPG     H12S     HAL2     0.900000E-01   1.00800           0   0.00000     -0.301140E-02
       431 MEMB     4        PMPG     C213     CTL2    -0.180000       12.0110           0   0.00000     -0.301140E-02
       432 MEMB     4        PMPG     H13R     HAL2     0.900000E-01   1.00800           0   0.00000     -0.301140E-02
       433 MEMB     4        PMPG     H13S     HAL2     0.900000E-01   1.00800           0   0.00000     -0.301140E-02
       434 MEMB     4        PMPG     C214     CTL2    -0.180000       12.0110           0   0.00000     -0.301140E-02
       435 MEMB     4        PMPG     H14R     HAL2     0.900000E-01   1.00800           0   0.00000     -0.301140E-02
       436 MEMB     4        PMPG     H14S     HAL2     0.900000E-01   1.00800           0   0.00000     -0.301140E-02
       437 MEMB     4        PMPG     C215     CTL2    -0.180000       12.0110           0   0.00000     -0.301140E-02
       438 MEMB     4        PMPG     H15R     HAL2     0.900000E-01   1.00800           0   0.00000     -0.301140E-02
       439 MEMB     4        PMPG     H15S     HAL2     0.900000E-01   1.00800           0   0.00000     -0.301140E-02
       440 MEMB     4        PMPG     C216     CTL3    -0.270000       12.0110           0   0.00000     -0.301140E-02
       441 MEMB     4        PMPG     H16R     HAL3     0.900000E-01   1.00800           0   0.00000     -0.301140E-02
       442 MEMB     4        PMPG     H16S     HAL3     0.900000E-01   1.00800           0   0.00000     -0.301140E-02
       443 MEMB     4        PMPG     H16T     HAL3     0.900000E-01   1.00800           0   0.00000     -0.301140E-02
       444 MEMB     4        PMPG     C33      CTL2    -0.180000       12.0110           0   0.00000     -0.301140E-02
       445 MEMB     4        PMPG     H3X      HAL2     0.900000E-01   1.00800           0   0.00000     -0.301140E-02
       446 MEMB     4        PMPG     H3Y      HAL2     0.900000E-01   1.00800           0   0.00000     -0.301140E-02
       447 MEMB     4        PMPG     C34      CTL2    -0.180000       12.0110           0   0.00000     -0.301140E-02
       448 MEMB     4        PMPG     H4X      HAL2     0.900000E-01   1.00800           0   0.00000     -0.301140E-02
       449 MEMB     4        PMPG     H4Y      HAL2     0.900000E-01   1.00800           0   0.00000     -0.301140E-02
       450 MEMB     4        PMPG     C35      CTL2    -0.180000       12.0110           0   0.00000     -0.301140E-02
       451 MEMB     4        PMPG     H5X      HAL2     0.900000E-01   1.00800           0   0.00000     -0.301140E-02
       452 MEMB     4        PMPG     H5Y      HAL2     0.900000E-01   1.00800           0   0.00000     -0.301140E-02
       453 MEMB     4        PMPG     C36      CTL2    -0.180000       12.0110           0   0.00000     -0.301140E-02
       454 MEMB     4        PMPG     H6X      HAL2     0.900000E-01   1.00800           0   0.00000     -0.301140E-02
       455 MEMB     4        PMPG     H6Y      HAL2     0.900000E-01   1.00800           0   0.00000     -0.301140E-02
       456 MEMB     4        PMPG     C37      CTL2    -0.180000       12.0110           0   0.00000     -0.301140E-02
       457 MEMB     4        PMPG     H7X      HAL2     0.900000E-01   1.00800           0   0.00000     -0.301140E-02
       458 MEMB     4        PMPG     H7Y      HAL2     0.900000E-01   1.00800           0   0.00000     -0.301140E-02
       459 MEMB     4        PMPG     C38      CTL2    -0.180000       12.0110           0   0.00000     -0.301140E-02
       460 MEMB     4        PMPG     H8X      HAL2     0.900000E-01   1.00800           0   0.00000     -0.301140E-02
       461 MEMB     4        PMPG     H8Y      HAL2     0.900000E-01   1.00800           0   0.00000     -0.301140E-02
       462 MEMB     4        PMPG     C39      CTL2    -0.180000       12.0110           0   0.00000     -0.301140E-02
       463 MEMB     4        PMPG     H9X      HAL2     0.900000E-01   1.00800           0   0.00000     -0.301140E-02
       464 MEMB     4        PMPG     H9Y      HAL2     0.900000E-01   1.00800           0   0.00000     -0.301140E-02
       465 MEMB     4        PMPG     C310     CTL2    -0.180000       12.0110           0   0.00000     -0.301140E-02
       466 MEMB     4        PMPG     H10X     HAL2     0.900000E-01   1.00800           0   0.00000     -0.301140E-02
       467 MEMB     4        PMPG     H10Y     HAL2     0.900000E-01   1.00800           0   0.00000     -0.301140E-02
       468 MEMB     4        PMPG     C311     CTL2    -0.180000       12.0110           0   0.00000     -0.301140E-02
       469 MEMB     4        PMPG     H11X     HAL2     0.900000E-01   1.00800           0   0.00000     -0.301140E-02
       470 MEMB     4        PMPG     H11Y     HAL2     0.900000E-01   1.00800           0   0.00000     -0.301140E-02
       471 MEMB     4        PMPG     C312     CTL2    -0.180000       12.0110           0   0.00000     -0.301140E-02
       472 MEMB     4        PMPG     H12X     HAL2     0.900000E-01   1.00800           0   0.00000     -0.301140E-02
       473 MEMB     4        PMPG     H12Y     HAL2     0.900000E-01   1.00800           0   0.00000     -0.301140E-02
       474 MEMB     4        PMPG     C313     CTL2    -0.180000       12.0110           0   0.00000     -0.301140E-02
       475 MEMB     4        PMPG     H13X     HAL2     0.900000E-01   1.00800           0   0.00000     -0.301140E-02
       476 MEMB     4        PMPG     H13Y     HAL2     0.900000E-01   1.00800           0   0.00000     -0.301140E-02
       477 MEMB     4        PMPG     C314     CTL2    -0.180000       12.0110           0   0.00000     -0.301140E-02
       478 MEMB     4        PMPG     H14X     HAL2     0.900000E-01   1.00800           0   0.00000     -0.301140E-02
       479 MEMB     4        PMPG     H14Y     HAL2     0.900000E-01   1.00800           0   0.00000     -0.301140E-02
       480 MEMB     4        PMPG     C315     CTL2    -0.180000       12.0110           0   0.00000     -0.301140E-02
       481 MEMB     4        PMPG     H15X     HAL2     0.900000E-01   1.00800           0   0.00000     -0.301140E-02
       482 MEMB     4        PMPG     H15Y     HAL2     0.900000E-01   1.00800           0   0.00000     -0.301140E-02
       483 MEMB     4        PMPG     C316     CTL3    -0.270000       12.0110           0   0.00000     -0.301140E-02
       484 MEMB     4        PMPG     H16X     HAL3     0.900000E-01   1.00800           0   0.00000     -0.301140E-02
       485 MEMB     4        PMPG     H16Y     HAL3     0.900000E-01   1.00800           0   0.00000     -0.301140E-02
       486 MEMB     4        PMPG     H16Z     HAL3     0.900000E-01   1.00800           0   0.00000     -0.301140E-02
       487 MEMB     5        QMPE     N        NH3L    -0.300000       14.0070           0   0.00000     -0.301140E-02
       488 MEMB     5        QMPE     HN1      HCL      0.330000       1.00800           0   0.00000     -0.301140E-02
       489 MEMB     5        QMPE     HN2      HCL      0.330000       1.00800           0   0.00000     -0.301140E-02
       490 MEMB     5        QMPE     HN3      HCL      0.330000       1.00800           0   0.00000     -0.301140E-02
       491 MEMB     5        QMPE     C12      CTL2     0.130000       12.0110           0   0.00000     -0.301140E-02
       492 MEMB     5        QMPE     H12A     HAL2     0.900000E-01   1.00800           0   0.00000     -0.301140E-02
       493 MEMB     5        QMPE     H12B     HAL2     0.900000E-01   1.00800           0   0.00000     -0.301140E-02
       494 MEMB     5        QMPE     C11      CTL2    -0.800000E-01   12.0110           0   0.00000     -0.301140E-02
       495 MEMB     5        QMPE     H11A     HAL2     0.900000E-01   1.00800           0   0.00000     -0.301140E-02
       496 MEMB     5        QMPE     H11B     HAL2     0.900000E-01   1.00800           0   0.00000     -0.301140E-02
       497 MEMB     5        QMPE     P        PL        1.50000       30.9740           0   0.00000     -0.301140E-02
       498 MEMB     5        QMPE     O13      O2L     -0.780000       15.9994           0   0.00000     -0.301140E-02
       499 MEMB     5        QMPE     O14      O2L     -0.780000       15.9994           0   0.00000     -0.301140E-02
       500 MEMB     5        QMPE     O11      OSLP    -0.570000       15.9994           0   0.00000     -0.301140E-02
       501 MEMB     5        QMPE     O12      OSLP    -0.570000       15.9994           0   0.00000     -0.301140E-02
       502 MEMB     5        QMPE     C1       CTL2    -0.800000E-01   12.0110           0   0.00000     -0.301140E-02
       503 MEMB     5        QMPE     HA       HAL2     0.900000E-01   1.00800           0   0.00000     -0.301140E-02
       504 MEMB     5        QMPE     HB       HAL2     0.900000E-01   1.00800           0   0.00000     -0.301140E-02
       505 MEMB     5        QMPE     C2       CTL1     0.170000       12.0110           0   0.00000     -0.301140E-02
       506 MEMB     5        QMPE     HS       HAL1     0.900000E-01   1.00800           0   0.00000     -0.301140E-02
       507 MEMB     5        QMPE     O21      OSL     -0.490000       15.9994           0   0.00000     -0.301140E-02
       508 MEMB     5        QMPE     C21      CL       0.900000       12.0110           0   0.00000     -0.301140E-02
       509 MEMB     5        QMPE     O22      OBL     -0.630000       15.9994           0   0.00000     -0.301140E-02
       510 MEMB     5        QMPE     C22      CTL2    -0.220000       12.0110           0   0.00000     -0.301140E-02
       511 MEMB     5        QMPE     H2R      HAL2     0.900000E-01   1.00800           0   0.00000     -0.301140E-02
       512 MEMB     5        QMPE     H2S      HAL2     0.900000E-01   1.00800           0   0.00000     -0.301140E-02
       513 MEMB     5        QMPE     C3       CTL2     0.800000E-01   12.0110           0   0.00000     -0.301140E-02
       514 MEMB     5        QMPE     HX       HAL2     0.900000E-01   1.00800           0   0.00000     -0.301140E-02
       515 MEMB     5        QMPE     HY       HAL2     0.900000E-01   1.00800           0   0.00000     -0.301140E-02
       516 MEMB     5        QMPE     O31      OSL     -0.490000       15.9994           0   0.00000     -0.301140E-02
       517 MEMB     5        QMPE     C31      CL       0.900000       12.0110           0   0.00000     -0.301140E-02
       518 MEMB     5        QMPE     O32      OBL     -0.630000       15.9994           0   0.00000     -0.301140E-02
       519 MEMB     5        QMPE     C32      CTL2    -0.220000       12.0110           0   0.00000     -0.301140E-02
       520 MEMB     5        QMPE     H2X      HAL2     0.900000E-01   1.00800           0   0.00000     -0.301140E-02
       521 MEMB     5        QMPE     H2Y      HAL2     0.900000E-01   1.00800           0   0.00000     -0.301140E-02
       522 MEMB     5        QMPE     C23      CTL2    -0.180000       12.0110           0   0.00000     -0.301140E-02
       523 MEMB     5        QMPE     H3R      HAL2     0.900000E-01   1.00800           0   0.00000     -0.301140E-02
       524 MEMB     5        QMPE     H3S      HAL2     0.900000E-01   1.00800           0   0.00000     -0.301140E-02
       525 MEMB     5        QMPE     C24      CTL2    -0.180000       12.0110           0   0.00000     -0.301140E-02
       526 MEMB     5        QMPE     H4R      HAL2     0.900000E-01   1.00800           0   0.00000     -0.301140E-02
       527 MEMB     5        QMPE     H4S      HAL2     0.900000E-01   1.00800           0   0.00000     -0.301140E-02
       528 MEMB     5        QMPE     C25      CTL2    -0.180000       12.0110           0   0.00000     -0.301140E-02
       529 MEMB     5        QMPE     H5R      HAL2     0.900000E-01   1.00800           0   0.00000     -0.301140E-02
       530 MEMB     5        QMPE     H5S      HAL2     0.900000E-01   1.00800           0   0.00000     -0.301140E-02
       531 MEMB     5        QMPE     C26      CTL2    -0.180000       12.0110           0   0.00000     -0.301140E-02
       532 MEMB     5        QMPE     H6R      HAL2     0.900000E-01   1.00800           0   0.00000     -0.301140E-02
       533 MEMB     5        QMPE     H6S      HAL2     0.900000E-01   1.00800           0   0.00000     -0.301140E-02
       534 MEMB     5        QMPE     C27      CTL2    -0.180000       12.0110           0   0.00000     -0.301140E-02
       535 MEMB     5        QMPE     H7R      HAL2     0.900000E-01   1.00800           0   0.00000     -0.301140E-02
       536 MEMB     5        QMPE     H7S      HAL2     0.900000E-01   1.00800           0   0.00000     -0.301140E-02
       537 MEMB     5        QMPE     C28      CTL2    -0.180000       12.0110           0   0.00000     -0.301140E-02
       538 MEMB     5        QMPE     H8R      HAL2     0.900000E-01   1.00800           0   0.00000     -0.301140E-02
       539 MEMB     5        QMPE     H8S      HAL2     0.900000E-01   1.00800           0   0.00000     -0.301140E-02
       540 MEMB     5        QMPE     C29      CG3RC1  -0.900000E-01   12.0110           0   0.00000     -0.301140E-02
       541 MEMB     5        QMPE     H9R      HGA1     0.900000E-01   1.00800           0   0.00000     -0.301140E-02
       542 MEMB     5        QMPE     C217     CG3C31  -0.180000       12.0110           0   0.00000     -0.301140E-02
       543 MEMB     5        QMPE     H17R     HGA2     0.900000E-01   1.00800           0   0.00000     -0.301140E-02
       544 MEMB     5        QMPE     H17S     HGA2     0.900000E-01   1.00800           0   0.00000     -0.301140E-02
       545 MEMB     5        QMPE     C210     CG3RC1  -0.900000E-01   12.0110           0   0.00000     -0.301140E-02
       546 MEMB     5        QMPE     H10R     HGA1     0.900000E-01   1.00800           0   0.00000     -0.301140E-02
       547 MEMB     5        QMPE     C211     CTL2    -0.180000       12.0110           0   0.00000     -0.301140E-02
       548 MEMB     5        QMPE     H11R     HAL2     0.900000E-01   1.00800           0   0.00000     -0.301140E-02
       549 MEMB     5        QMPE     H11S     HAL2     0.900000E-01   1.00800           0   0.00000     -0.301140E-02
       550 MEMB     5        QMPE     C212     CTL2    -0.180000       12.0110           0   0.00000     -0.301140E-02
       551 MEMB     5        QMPE     H12R     HAL2     0.900000E-01   1.00800           0   0.00000     -0.301140E-02
       552 MEMB     5        QMPE     H12S     HAL2     0.900000E-01   1.00800           0   0.00000     -0.301140E-02
       553 MEMB     5        QMPE     C213     CTL2    -0.180000       12.0110           0   0.00000     -0.301140E-02
       554 MEMB     5        QMPE     H13R     HAL2     0.900000E-01   1.00800           0   0.00000     -0.301140E-02
       555 MEMB     5        QMPE     H13S     HAL2     0.900000E-01   1.00800           0   0.00000     -0.301140E-02
       556 MEMB     5        QMPE     C214     CTL2    -0.180000       12.0110           0   0.00000     -0.301140E-02
       557 MEMB     5        QMPE     H14R     HAL2     0.900000E-01   1.00800           0   0.00000     -0.301140E-02
       558 MEMB     5        QMPE     H14S     HAL2     0.900000E-01   1.00800           0   0.00000     -0.301140E-02
       559 MEMB     5        QMPE     C215     CTL2    -0.180000       12.0110           0   0.00000     -0.301140E-02
       560 MEMB     5        QMPE     H15R     HAL2     0.900000E-01   1.00800           0   0.00000     -0.301140E-02
       561 MEMB     5        QMPE     H15S     HAL2     0.900000E-01   1.00800           0   0.00000     -0.301140E-02
       562 MEMB     5        QMPE     C216     CTL3    -0.270000       12.0110           0   0.00000     -0.301140E-02
       563 MEMB     5        QMPE     H16R     HAL3     0.900000E-01   1.00800           0   0.00000     -0.301140E-02
       564 MEMB     5        QMPE     H16S     HAL3     0.900000E-01   1.00800           0   0.00000     -0.301140E-02
       565 MEMB     5        QMPE     H16T     HAL3     0.900000E-01   1.00800           0   0.00000     -0.301140E-02
       566 MEMB     5        QMPE     C33      CTL2    -0.180000       12.0110           0   0.00000     -0.301140E-02
       567 MEMB     5        QMPE     H3X      HAL2     0.900000E-01   1.00800           0   0.00000     -0.301140E-02
       568 MEMB     5        QMPE     H3Y      HAL2     0.900000E-01   1.00800           0   0.00000     -0.301140E-02
       569 MEMB     5        QMPE     C34      CTL2    -0.180000       12.0110           0   0.00000     -0.301140E-02
       570 MEMB     5        QMPE     H4X      HAL2     0.900000E-01   1.00800           0   0.00000     -0.301140E-02
       571 MEMB     5        QMPE     H4Y      HAL2     0.900000E-01   1.00800           0   0.00000     -0.301140E-02
       572 MEMB     5        QMPE     C35      CTL2    -0.180000       12.0110           0   0.00000     -0.301140E-02
       573 MEMB     5        QMPE     H5X      HAL2     0.900000E-01   1.00800           0   0.00000     -0.301140E-02
       574 MEMB     5        QMPE     H5Y      HAL2     0.900000E-01   1.00800           0   0.00000     -0.301140E-02
       575 MEMB     5        QMPE     C36      CTL2    -0.180000       12.0110           0   0.00000     -0.301140E-02
       576 MEMB     5        QMPE     H6X      HAL2     0.900000E-01   1.00800           0   0.00000     -0.301140E-02
       577 MEMB     5        QMPE     H6Y      HAL2     0.900000E-01   1.00800           0   0.00000     -0.301140E-02
       578 MEMB     5        QMPE     C37      CTL2    -0.180000       12.0110           0   0.00000     -0.301140E-02
       579 MEMB     5        QMPE     H7X      HAL2     0.900000E-01   1.00800           0   0.00000     -0.301140E-02
       580 MEMB     5        QMPE     H7Y      HAL2     0.900000E-01   1.00800           0   0.00000     -0.301140E-02
       581 MEMB     5        QMPE     C38      CTL2    -0.180000       12.0110           0   0.00000     -0.301140E-02
       582 MEMB     5        QMPE     H8X      HAL2     0.900000E-01   1.00800           0   0.00000     -0.301140E-02
       583 MEMB     5        QMPE     H8Y      HAL2     0.900000E-01   1.00800           0   0.00000     -0.301140E-02
       584 MEMB     5        QMPE     C39      CTL2    -0.180000       12.0110           0   0.00000     -0.301140E-02
       585 MEMB     5        QMPE     H9X      HAL2     0.900000E-01   1.00800           0   0.00000     -0.301140E-02
       586 MEMB     5        QMPE     H9Y      HAL2     0.900000E-01   1.00800           0   0.00000     -0.301140E-02
       587 MEMB     5        QMPE     C310     CTL2    -0.180000       12.0110           0   0.00000     -0.301140E-02
       588 MEMB     5        QMPE     H10X     HAL2     0.900000E-01   1.00800           0   0.00000     -0.301140E-02
       589 MEMB     5        QMPE     H10Y     HAL2     0.900000E-01   1.00800           0   0.00000     -0.301140E-02
       590 MEMB     5        QMPE     C311     CTL2    -0.180000       12.0110           0   0.00000     -0.301140E-02
       591 MEMB     5        QMPE     H11X     HAL2     0.900000E-01   1.00800           0   0.00000     -0.301140E-02
       592 MEMB     5        QMPE     H11Y     HAL2     0.900000E-01   1.00800           0   0.00000     -0.301140E-02
       593 MEMB     5        QMPE     C312     CTL2    -0.180000       12.0110           0   0.00000     -0.301140E-02
       594 MEMB     5        QMPE     H12X     HAL2     0.900000E-01   1.00800           0   0.00000     -0.301140E-02
       595 MEMB     5        QMPE     H12Y     HAL2     0.900000E-01   1.00800           0   0.00000     -0.301140E-02
       596 MEMB     5        QMPE     C313     CTL2    -0.180000       12.0110           0   0.00000     -0.301140E-02
       597 MEMB     5        QMPE     H13X     HAL2     0.900000E-01   1.00800           0   0.00000     -0.301140E-02
       598 MEMB     5        QMPE     H13Y     HAL2     0.900000E-01   1.00800           0   0.00000     -0.301140E-02
       599 MEMB     5        QMPE     C314     CTL2    -0.180000       12.0110           0   0.00000     -0.301140E-02
       600 MEMB     5        QMPE     H14X     HAL2     0.900000E-01   1.00800           0   0.00000     -0.301140E-02
       601 MEMB     5        QMPE     H14Y     HAL2     0.900000E-01   1.00800           0   0.00000     -0.301140E-02
       602 MEMB     5        QMPE     C315     CTL3    -0.270000       12.0110           0   0.00000     -0.301140E-02
       603 MEMB     5        QMPE     H15X     HAL3     0.900000E-01   1.00800           0   0.00000     -0.301140E-02
       604 MEMB     5        QMPE     H15Y     HAL3     0.900000E-01   1.00800           0   0.00000     -0.301140E-02
       605 MEMB     5        QMPE     H15Z     HAL3     0.900000E-01   1.00800           0   0.00000     -0.301140E-02
       606 MEMB     6        PMPE     N        NH3L    -0.300000       14.0070           0   0.00000     -0.301140E-02
       607 MEMB     6        PMPE     HN1      HCL      0.330000       1.00800           0   0.00000     -0.301140E-02
       608 MEMB     6        PMPE     HN2      HCL      0.330000       1.00800           0   0.00000     -0.301140E-02
       609 MEMB     6        PMPE     HN3      HCL      0.330000       1.00800           0   0.00000     -0.301140E-02
       610 MEMB     6        PMPE     C12      CTL2     0.130000       12.0110           0   0.00000     -0.301140E-02
       611 MEMB     6        PMPE     H12A     HAL2     0.900000E-01   1.00800           0   0.00000     -0.301140E-02
       612 MEMB     6        PMPE     H12B     HAL2     0.900000E-01   1.00800           0   0.00000     -0.301140E-02
       613 MEMB     6        PMPE     C11      CTL2    -0.800000E-01   12.0110           0   0.00000     -0.301140E-02
       614 MEMB     6        PMPE     H11A     HAL2     0.900000E-01   1.00800           0   0.00000     -0.301140E-02
       615 MEMB     6        PMPE     H11B     HAL2     0.900000E-01   1.00800           0   0.00000     -0.301140E-02
       616 MEMB     6        PMPE     P        PL        1.50000       30.9740           0   0.00000     -0.301140E-02
       617 MEMB     6        PMPE     O13      O2L     -0.780000       15.9994           0   0.00000     -0.301140E-02
       618 MEMB     6        PMPE     O14      O2L     -0.780000       15.9994           0   0.00000     -0.301140E-02
       619 MEMB     6        PMPE     O11      OSLP    -0.570000       15.9994           0   0.00000     -0.301140E-02
       620 MEMB     6        PMPE     O12      OSLP    -0.570000       15.9994           0   0.00000     -0.301140E-02
       621 MEMB     6        PMPE     C1       CTL2    -0.800000E-01   12.0110           0   0.00000     -0.301140E-02
       622 MEMB     6        PMPE     HA       HAL2     0.900000E-01   1.00800           0   0.00000     -0.301140E-02
       623 MEMB     6        PMPE     HB       HAL2     0.900000E-01   1.00800           0   0.00000     -0.301140E-02
       624 MEMB     6        PMPE     C2       CTL1     0.170000       12.0110           0   0.00000     -0.301140E-02
       625 MEMB     6        PMPE     HS       HAL1     0.900000E-01   1.00800           0   0.00000     -0.301140E-02
       626 MEMB     6        PMPE     O21      OSL     -0.490000       15.9994           0   0.00000     -0.301140E-02
       627 MEMB     6        PMPE     C21      CL       0.900000       12.0110           0   0.00000     -0.301140E-02
       628 MEMB     6        PMPE     O22      OBL     -0.630000       15.9994           0   0.00000     -0.301140E-02
       629 MEMB     6        PMPE     C22      CTL2    -0.220000       12.0110           0   0.00000     -0.301140E-02
       630 MEMB     6        PMPE     H2R      HAL2     0.900000E-01   1.00800           0   0.00000     -0.301140E-02
       631 MEMB     6        PMPE     H2S      HAL2     0.900000E-01   1.00800           0   0.00000     -0.301140E-02
       632 MEMB     6        PMPE     C3       CTL2     0.800000E-01   12.0110           0   0.00000     -0.301140E-02
       633 MEMB     6        PMPE     HX       HAL2     0.900000E-01   1.00800           0   0.00000     -0.301140E-02
       634 MEMB     6        PMPE     HY       HAL2     0.900000E-01   1.00800           0   0.00000     -0.301140E-02
       635 MEMB     6        PMPE     O31      OSL     -0.490000       15.9994           0   0.00000     -0.301140E-02
       636 MEMB     6        PMPE     C31      CL       0.900000       12.0110           0   0.00000     -0.301140E-02
       637 MEMB     6        PMPE     O32      OBL     -0.630000       15.9994           0   0.00000     -0.301140E-02
       638 MEMB     6        PMPE     C32      CTL2    -0.220000       12.0110           0   0.00000     -0.301140E-02
       639 MEMB     6        PMPE     H2X      HAL2     0.900000E-01   1.00800           0   0.00000     -0.301140E-02
       640 MEMB     6        PMPE     H2Y      HAL2     0.900000E-01   1.00800           0   0.00000     -0.301140E-02
       641 MEMB     6        PMPE     C23      CTL2    -0.180000       12.0110           0   0.00000     -0.301140E-02
       642 MEMB     6        PMPE     H3R      HAL2     0.900000E-01   1.00800           0   0.00000     -0.301140E-02
       643 MEMB     6        PMPE     H3S      HAL2     0.900000E-01   1.00800           0   0.00000     -0.301140E-02
       644 MEMB     6        PMPE     C24      CTL2    -0.180000       12.0110           0   0.00000     -0.301140E-02
       645 MEMB     6        PMPE     H4R      HAL2     0.900000E-01   1.00800           0   0.00000     -0.301140E-02
       646 MEMB     6        PMPE     H4S      HAL2     0.900000E-01   1.00800           0   0.00000     -0.301140E-02
       647 MEMB     6        PMPE     C25      CTL2    -0.180000       12.0110           0   0.00000     -0.301140E-02
       648 MEMB     6        PMPE     H5R      HAL2     0.900000E-01   1.00800           0   0.00000     -0.301140E-02
       649 MEMB     6        PMPE     H5S      HAL2     0.900000E-01   1.00800           0   0.00000     -0.301140E-02
       650 MEMB     6        PMPE     C26      CTL2    -0.180000       12.0110           0   0.00000     -0.301140E-02
       651 MEMB     6        PMPE     H6R      HAL2     0.900000E-01   1.00800           0   0.00000     -0.301140E-02
       652 MEMB     6        PMPE     H6S      HAL2     0.900000E-01   1.00800           0   0.00000     -0.301140E-02
       653 MEMB     6        PMPE     C27      CTL2    -0.180000       12.0110           0   0.00000     -0.301140E-02
       654 MEMB     6        PMPE     H7R      HAL2     0.900000E-01   1.00800           0   0.00000     -0.301140E-02
       655 MEMB     6        PMPE     H7S      HAL2     0.900000E-01   1.00800           0   0.00000     -0.301140E-02
       656 MEMB     6        PMPE     C28      CTL2    -0.180000       12.0110           0   0.00000     -0.301140E-02
       657 MEMB     6        PMPE     H8R      HAL2     0.900000E-01   1.00800           0   0.00000     -0.301140E-02
       658 MEMB     6        PMPE     H8S      HAL2     0.900000E-01   1.00800           0   0.00000     -0.301140E-02
       659 MEMB     6        PMPE     C29      CG3RC1  -0.900000E-01   12.0110           0   0.00000     -0.301140E-02
       660 MEMB     6        PMPE     H9R      HGA1     0.900000E-01   1.00800           0   0.00000     -0.301140E-02
       661 MEMB     6        PMPE     C217     CG3C31  -0.180000       12.0110           0   0.00000     -0.301140E-02
       662 MEMB     6        PMPE     H17R     HGA2     0.900000E-01   1.00800           0   0.00000     -0.301140E-02
       663 MEMB     6        PMPE     H17S     HGA2     0.900000E-01   1.00800           0   0.00000     -0.301140E-02
       664 MEMB     6        PMPE     C210     CG3RC1  -0.900000E-01   12.0110           0   0.00000     -0.301140E-02
       665 MEMB     6        PMPE     H10R     HGA1     0.900000E-01   1.00800           0   0.00000     -0.301140E-02
       666 MEMB     6        PMPE     C211     CTL2    -0.180000       12.0110           0   0.00000     -0.301140E-02
       667 MEMB     6        PMPE     H11R     HAL2     0.900000E-01   1.00800           0   0.00000     -0.301140E-02
       668 MEMB     6        PMPE     H11S     HAL2     0.900000E-01   1.00800           0   0.00000     -0.301140E-02
       669 MEMB     6        PMPE     C212     CTL2    -0.180000       12.0110           0   0.00000     -0.301140E-02
       670 MEMB     6        PMPE     H12R     HAL2     0.900000E-01   1.00800           0   0.00000     -0.301140E-02
       671 MEMB     6        PMPE     H12S     HAL2     0.900000E-01   1.00800           0   0.00000     -0.301140E-02
       672 MEMB     6        PMPE     C213     CTL2    -0.180000       12.0110           0   0.00000     -0.301140E-02
       673 MEMB     6        PMPE     H13R     HAL2     0.900000E-01   1.00800           0   0.00000     -0.301140E-02
       674 MEMB     6        PMPE     H13S     HAL2     0.900000E-01   1.00800           0   0.00000     -0.301140E-02
       675 MEMB     6        PMPE     C214     CTL2    -0.180000       12.0110           0   0.00000     -0.301140E-02
       676 MEMB     6        PMPE     H14R     HAL2     0.900000E-01   1.00800           0   0.00000     -0.301140E-02
       677 MEMB     6        PMPE     H14S     HAL2     0.900000E-01   1.00800           0   0.00000     -0.301140E-02
       678 MEMB     6        PMPE     C215     CTL2    -0.180000       12.0110           0   0.00000     -0.301140E-02
       679 MEMB     6        PMPE     H15R     HAL2     0.900000E-01   1.00800           0   0.00000     -0.301140E-02
       680 MEMB     6        PMPE     H15S     HAL2     0.900000E-01   1.00800           0   0.00000     -0.301140E-02
       681 MEMB     6        PMPE     C216     CTL3    -0.270000       12.0110           0   0.00000     -0.301140E-02
       682 MEMB     6        PMPE     H16R     HAL3     0.900000E-01   1.00800           0   0.00000     -0.301140E-02
       683 MEMB     6        PMPE     H16S     HAL3     0.900000E-01   1.00800           0   0.00000     -0.301140E-02
       684 MEMB     6        PMPE     H16T     HAL3     0.900000E-01   1.00800           0   0.00000     -0.301140E-02
       685 MEMB     6        PMPE     C33      CTL2    -0.180000       12.0110           0   0.00000     -0.301140E-02
       686 MEMB     6        PMPE     H3X      HAL2     0.900000E-01   1.00800           0   0.00000     -0.301140E-02
       687 MEMB     6        PMPE     H3Y      HAL2     0.900000E-01   1.00800           0   0.00000     -0.301140E-02
       688 MEMB     6        PMPE     C34      CTL2    -0.180000       12.0110           0   0.00000     -0.301140E-02
       689 MEMB     6        PMPE     H4X      HAL2     0.900000E-01   1.00800           0   0.00000     -0.301140E-02
       690 MEMB     6        PMPE     H4Y      HAL2     0.900000E-01   1.00800           0   0.00000     -0.301140E-02
       691 MEMB     6        PMPE     C35      CTL2    -0.180000       12.0110           0   0.00000     -0.301140E-02
       692 MEMB     6        PMPE     H5X      HAL2     0.900000E-01   1.00800           0   0.00000     -0.301140E-02
       693 MEMB     6        PMPE     H5Y      HAL2     0.900000E-01   1.00800           0   0.00000     -0.301140E-02
       694 MEMB     6        PMPE     C36      CTL2    -0.180000       12.0110           0   0.00000     -0.301140E-02
       695 MEMB     6        PMPE     H6X      HAL2     0.900000E-01   1.00800           0   0.00000     -0.301140E-02
       696 MEMB     6        PMPE     H6Y      HAL2     0.900000E-01   1.00800           0   0.00000     -0.301140E-02
       697 MEMB     6        PMPE     C37      CTL2    -0.180000       12.0110           0   0.00000     -0.301140E-02
       698 MEMB     6        PMPE     H7X      HAL2     0.900000E-01   1.00800           0   0.00000     -0.301140E-02
       699 MEMB     6        PMPE     H7Y      HAL2     0.900000E-01   1.00800           0   0.00000     -0.301140E-02
       700 MEMB     6        PMPE     C38      CTL2    -0.180000       12.0110           0   0.00000     -0.301140E-02
       701 MEMB     6        PMPE     H8X      HAL2     0.900000E-01   1.00800           0   0.00000     -0.301140E-02
       702 MEMB     6        PMPE     H8Y      HAL2     0.900000E-01   1.00800           0   0.00000     -0.301140E-02
       703 MEMB     6        PMPE     C39      CTL2    -0.180000       12.0110           0   0.00000     -0.301140E-02
       704 MEMB     6        PMPE     H9X      HAL2     0.900000E-01   1.00800           0   0.00000     -0.301140E-02
       705 MEMB     6        PMPE     H9Y      HAL2     0.900000E-01   1.00800           0   0.00000     -0.301140E-02
       706 MEMB     6        PMPE     C310     CTL2    -0.180000       12.0110           0   0.00000     -0.301140E-02
       707 MEMB     6        PMPE     H10X     HAL2     0.900000E-01   1.00800           0   0.00000     -0.301140E-02
       708 MEMB     6        PMPE     H10Y     HAL2     0.900000E-01   1.00800           0   0.00000     -0.301140E-02
       709 MEMB     6        PMPE     C311     CTL2    -0.180000       12.0110           0   0.00000     -0.301140E-02
       710 MEMB     6        PMPE     H11X     HAL2     0.900000E-01   1.00800           0   0.00000     -0.301140E-02
       711 MEMB     6        PMPE     H11Y     HAL2     0.900000E-01   1.00800           0   0.00000     -0.301140E-02
       712 MEMB     6        PMPE     C312     CTL2    -0.180000       12.0110           0   0.00000     -0.301140E-02
       713 MEMB     6        PMPE     H12X     HAL2     0.900000E-01   1.00800           0   0.00000     -0.301140E-02
       714 MEMB     6        PMPE     H12Y     HAL2     0.900000E-01   1.00800           0   0.00000     -0.301140E-02
       715 MEMB     6        PMPE     C313     CTL2    -0.180000       12.0110           0   0.00000     -0.301140E-02
       716 MEMB     6        PMPE     H13X     HAL2     0.900000E-01   1.00800           0   0.00000     -0.301140E-02
       717 MEMB     6        PMPE     H13Y     HAL2     0.900000E-01   1.00800           0   0.00000     -0.301140E-02
       718 MEMB     6        PMPE     C314     CTL2    -0.180000       12.0110           0   0.00000     -0.301140E-02
       719 MEMB     6        PMPE     H14X     HAL2     0.900000E-01   1.00800           0   0.00000     -0.301140E-02
       720 MEMB     6        PMPE     H14Y     HAL2     0.900000E-01   1.00800           0   0.00000     -0.301140E-02
       721 MEMB     6        PMPE     C315     CTL2    -0.180000       12.0110           0   0.00000     -0.301140E-02
       722 MEMB     6        PMPE     H15X     HAL2     0.900000E-01   1.00800           0   0.00000     -0.301140E-02
       723 MEMB     6        PMPE     H15Y     HAL2     0.900000E-01   1.00800           0   0.00000     -0.301140E-02
       724 MEMB     6        PMPE     C316     CTL3    -0.270000       12.0110           0   0.00000     -0.301140E-02
       725 MEMB     6        PMPE     H16X     HAL3     0.900000E-01   1.00800           0   0.00000     -0.301140E-02
       726 MEMB     6        PMPE     H16Y     HAL3     0.900000E-01   1.00800           0   0.00000     -0.301140E-02
       727 MEMB     6        PMPE     H16Z     HAL3     0.900000E-01   1.00800           0   0.00000     -0.301140E-02
       728 MEMB     7        PMPG     C13      CTL2     0.500000E-01   12.0110           0   0.00000     -0.301140E-02
       729 MEMB     7        PMPG     H13A     HAL2     0.900000E-01   1.00800           0   0.00000     -0.301140E-02
       730 MEMB     7        PMPG     H13B     HAL2     0.900000E-01   1.00800           0   0.00000     -0.301140E-02
       731 MEMB     7        PMPG     OC3      OHL     -0.660000       15.9994           0   0.00000     -0.301140E-02
       732 MEMB     7        PMPG     HO3      HOL      0.430000       1.00800           0   0.00000     -0.301140E-02
       733 MEMB     7        PMPG     C12      CTL1     0.140000       12.0110           0   0.00000     -0.301140E-02
       734 MEMB     7        PMPG     H12A     HAL1     0.900000E-01   1.00800           0   0.00000     -0.301140E-02
       735 MEMB     7        PMPG     OC2      OHL     -0.660000       15.9994           0   0.00000     -0.301140E-02
       736 MEMB     7        PMPG     HO2      HOL      0.430000       1.00800           0   0.00000     -0.301140E-02
       737 MEMB     7        PMPG     C11      CTL2    -0.800000E-01   12.0110           0   0.00000     -0.301140E-02
       738 MEMB     7        PMPG     H11A     HAL2     0.900000E-01   1.00800           0   0.00000     -0.301140E-02
       739 MEMB     7        PMPG     H11B     HAL2     0.900000E-01   1.00800           0   0.00000     -0.301140E-02
       740 MEMB     7        PMPG     P        PL        1.50000       30.9740           0   0.00000     -0.301140E-02
       741 MEMB     7        PMPG     O13      O2L     -0.780000       15.9994           0   0.00000     -0.301140E-02
       742 MEMB     7        PMPG     O14      O2L     -0.780000       15.9994           0   0.00000     -0.301140E-02
       743 MEMB     7        PMPG     O11      OSLP    -0.570000       15.9994           0   0.00000     -0.301140E-02
       744 MEMB     7        PMPG     O12      OSLP    -0.570000       15.9994           0   0.00000     -0.301140E-02
       745 MEMB     7        PMPG     C1       CTL2    -0.800000E-01   12.0110           0   0.00000     -0.301140E-02
       746 MEMB     7        PMPG     HA       HAL2     0.900000E-01   1.00800           0   0.00000     -0.301140E-02
       747 MEMB     7        PMPG     HB       HAL2     0.900000E-01   1.00800           0   0.00000     -0.301140E-02
       748 MEMB     7        PMPG     C2       CTL1     0.170000       12.0110           0   0.00000     -0.301140E-02
       749 MEMB     7        PMPG     HS       HAL1     0.900000E-01   1.00800           0   0.00000     -0.301140E-02
       750 MEMB     7        PMPG     O21      OSL     -0.490000       15.9994           0   0.00000     -0.301140E-02
       751 MEMB     7        PMPG     C21      CL       0.900000       12.0110           0   0.00000     -0.301140E-02
       752 MEMB     7        PMPG     O22      OBL     -0.630000       15.9994           0   0.00000     -0.301140E-02
       753 MEMB     7        PMPG     C22      CTL2    -0.220000       12.0110           0   0.00000     -0.301140E-02
       754 MEMB     7        PMPG     H2R      HAL2     0.900000E-01   1.00800           0   0.00000     -0.301140E-02
       755 MEMB     7        PMPG     H2S      HAL2     0.900000E-01   1.00800           0   0.00000     -0.301140E-02
       756 MEMB     7        PMPG     C3       CTL2     0.800000E-01   12.0110           0   0.00000     -0.301140E-02
       757 MEMB     7        PMPG     HX       HAL2     0.900000E-01   1.00800           0   0.00000     -0.301140E-02
       758 MEMB     7        PMPG     HY       HAL2     0.900000E-01   1.00800           0   0.00000     -0.301140E-02
       759 MEMB     7        PMPG     O31      OSL     -0.490000       15.9994           0   0.00000     -0.301140E-02
       760 MEMB     7        PMPG     C31      CL       0.900000       12.0110           0   0.00000     -0.301140E-02
       761 MEMB     7        PMPG     O32      OBL     -0.630000       15.9994           0   0.00000     -0.301140E-02
       762 MEMB     7        PMPG     C32      CTL2    -0.220000       12.0110           0   0.00000     -0.301140E-02
       763 MEMB     7        PMPG     H2X      HAL2     0.900000E-01   1.00800           0   0.00000     -0.301140E-02
       764 MEMB     7        PMPG     H2Y      HAL2     0.900000E-01   1.00800           0   0.00000     -0.301140E-02
       765 MEMB     7        PMPG     C23      CTL2    -0.180000       12.0110           0   0.00000     -0.301140E-02
       766 MEMB     7        PMPG     H3R      HAL2     0.900000E-01   1.00800           0   0.00000     -0.301140E-02
       767 MEMB     7        PMPG     H3S      HAL2     0.900000E-01   1.00800           0   0.00000     -0.301140E-02
       768 MEMB     7        PMPG     C24      CTL2    -0.180000       12.0110           0   0.00000     -0.301140E-02
       769 MEMB     7        PMPG     H4R      HAL2     0.900000E-01   1.00800           0   0.00000     -0.301140E-02
       770 MEMB     7        PMPG     H4S      HAL2     0.900000E-01   1.00800           0   0.00000     -0.301140E-02
       771 MEMB     7        PMPG     C25      CTL2    -0.180000       12.0110           0   0.00000     -0.301140E-02
       772 MEMB     7        PMPG     H5R      HAL2     0.900000E-01   1.00800           0   0.00000     -0.301140E-02
       773 MEMB     7        PMPG     H5S      HAL2     0.900000E-01   1.00800           0   0.00000     -0.301140E-02
       774 MEMB     7        PMPG     C26      CTL2    -0.180000       12.0110           0   0.00000     -0.301140E-02
       775 MEMB     7        PMPG     H6R      HAL2     0.900000E-01   1.00800           0   0.00000     -0.301140E-02
       776 MEMB     7        PMPG     H6S      HAL2     0.900000E-01   1.00800           0   0.00000     -0.301140E-02
       777 MEMB     7        PMPG     C27      CTL2    -0.180000       12.0110           0   0.00000     -0.301140E-02
       778 MEMB     7        PMPG     H7R      HAL2     0.900000E-01   1.00800           0   0.00000     -0.301140E-02
       779 MEMB     7        PMPG     H7S      HAL2     0.900000E-01   1.00800           0   0.00000     -0.301140E-02
       780 MEMB     7        PMPG     C28      CTL2    -0.180000       12.0110           0   0.00000     -0.301140E-02
       781 MEMB     7        PMPG     H8R      HAL2     0.900000E-01   1.00800           0   0.00000     -0.301140E-02
       782 MEMB     7        PMPG     H8S      HAL2     0.900000E-01   1.00800           0   0.00000     -0.301140E-02
       783 MEMB     7        PMPG     C29      CG3RC1  -0.900000E-01   12.0110           0   0.00000     -0.301140E-02
       784 MEMB     7        PMPG     H9R      HGA1     0.900000E-01   1.00800           0   0.00000     -0.301140E-02
       785 MEMB     7        PMPG     C217     CG3C31  -0.180000       12.0110           0   0.00000     -0.301140E-02
       786 MEMB     7        PMPG     H17R     HGA2     0.900000E-01   1.00800           0   0.00000     -0.301140E-02
       787 MEMB     7        PMPG     H17S     HGA2     0.900000E-01   1.00800           0   0.00000     -0.301140E-02
       788 MEMB     7        PMPG     C210     CG3RC1  -0.900000E-01   12.0110           0   0.00000     -0.301140E-02
       789 MEMB     7        PMPG     H10R     HGA1     0.900000E-01   1.00800           0   0.00000     -0.301140E-02
       790 MEMB     7        PMPG     C211     CTL2    -0.180000       12.0110           0   0.00000     -0.301140E-02
       791 MEMB     7        PMPG     H11R     HAL2     0.900000E-01   1.00800           0   0.00000     -0.301140E-02
       792 MEMB     7        PMPG     H11S     HAL2     0.900000E-01   1.00800           0   0.00000     -0.301140E-02
       793 MEMB     7        PMPG     C212     CTL2    -0.180000       12.0110           0   0.00000     -0.301140E-02
       794 MEMB     7        PMPG     H12R     HAL2     0.900000E-01   1.00800           0   0.00000     -0.301140E-02
       795 MEMB     7        PMPG     H12S     HAL2     0.900000E-01   1.00800           0   0.00000     -0.301140E-02
       796 MEMB     7        PMPG     C213     CTL2    -0.180000       12.0110           0   0.00000     -0.301140E-02
       797 MEMB     7        PMPG     H13R     HAL2     0.900000E-01   1.00800           0   0.00000     -0.301140E-02
       798 MEMB     7        PMPG     H13S     HAL2     0.900000E-01   1.00800           0   0.00000     -0.301140E-02
       799 MEMB     7        PMPG     C214     CTL2    -0.180000       12.0110           0   0.00000     -0.301140E-02
       800 MEMB     7        PMPG     H14R     HAL2     0.900000E-01   1.00800           0   0.00000     -0.301140E-02
       801 MEMB     7        PMPG     H14S     HAL2     0.900000E-01   1.00800           0   0.00000     -0.301140E-02
       802 MEMB     7        PMPG     C215     CTL2    -0.180000       12.0110           0   0.00000     -0.301140E-02
       803 MEMB     7        PMPG     H15R     HAL2     0.900000E-01   1.00800           0   0.00000     -0.301140E-02
       804 MEMB     7        PMPG     H15S     HAL2     0.900000E-01   1.00800           0   0.00000     -0.301140E-02
       805 MEMB     7        PMPG     C216     CTL3    -0.270000       12.0110           0   0.00000     -0.301140E-02
       806 MEMB     7        PMPG     H16R     HAL3     0.900000E-01   1.00800           0   0.00000     -0.301140E-02
       807 MEMB     7        PMPG     H16S     HAL3     0.900000E-01   1.00800           0   0.00000     -0.301140E-02
       808 MEMB     7        PMPG     H16T     HAL3     0.900000E-01   1.00800           0   0.00000     -0.301140E-02
       809 MEMB     7        PMPG     C33      CTL2    -0.180000       12.0110           0   0.00000     -0.301140E-02
       810 MEMB     7        PMPG     H3X      HAL2     0.900000E-01   1.00800           0   0.00000     -0.301140E-02
       811 MEMB     7        PMPG     H3Y      HAL2     0.900000E-01   1.00800           0   0.00000     -0.301140E-02
       812 MEMB     7        PMPG     C34      CTL2    -0.180000       12.0110           0   0.00000     -0.301140E-02
       813 MEMB     7        PMPG     H4X      HAL2     0.900000E-01   1.00800           0   0.00000     -0.301140E-02
       814 MEMB     7        PMPG     H4Y      HAL2     0.900000E-01   1.00800           0   0.00000     -0.301140E-02
       815 MEMB     7        PMPG     C35      CTL2    -0.180000       12.0110           0   0.00000     -0.301140E-02
       816 MEMB     7        PMPG     H5X      HAL2     0.900000E-01   1.00800           0   0.00000     -0.301140E-02
       817 MEMB     7        PMPG     H5Y      HAL2     0.900000E-01   1.00800           0   0.00000     -0.301140E-02
       818 MEMB     7        PMPG     C36      CTL2    -0.180000       12.0110           0   0.00000     -0.301140E-02
       819 MEMB     7        PMPG     H6X      HAL2     0.900000E-01   1.00800           0   0.00000     -0.301140E-02
       820 MEMB     7        PMPG     H6Y      HAL2     0.900000E-01   1.00800           0   0.00000     -0.301140E-02
       821 MEMB     7        PMPG     C37      CTL2    -0.180000       12.0110           0   0.00000     -0.301140E-02
       822 MEMB     7        PMPG     H7X      HAL2     0.900000E-01   1.00800           0   0.00000     -0.301140E-02
       823 MEMB     7        PMPG     H7Y      HAL2     0.900000E-01   1.00800           0   0.00000     -0.301140E-02
       824 MEMB     7        PMPG     C38      CTL2    -0.180000       12.0110           0   0.00000     -0.301140E-02
       825 MEMB     7        PMPG     H8X      HAL2     0.900000E-01   1.00800           0   0.00000     -0.301140E-02
       826 MEMB     7        PMPG     H8Y      HAL2     0.900000E-01   1.00800           0   0.00000     -0.301140E-02
       827 MEMB     7        PMPG     C39      CTL2    -0.180000       12.0110           0   0.00000     -0.301140E-02
       828 MEMB     7        PMPG     H9X      HAL2     0.900000E-01   1.00800           0   0.00000     -0.301140E-02
       829 MEMB     7        PMPG     H9Y      HAL2     0.900000E-01   1.00800           0   0.00000     -0.301140E-02
       830 MEMB     7        PMPG     C310     CTL2    -0.180000       12.0110           0   0.00000     -0.301140E-02
       831 MEMB     7        PMPG     H10X     HAL2     0.900000E-01   1.00800           0   0.00000     -0.301140E-02
       832 MEMB     7        PMPG     H10Y     HAL2     0.900000E-01   1.00800           0   0.00000     -0.301140E-02
       833 MEMB     7        PMPG     C311     CTL2    -0.180000       12.0110           0   0.00000     -0.301140E-02
       834 MEMB     7        PMPG     H11X     HAL2     0.900000E-01   1.00800           0   0.00000     -0.301140E-02
       835 MEMB     7        PMPG     H11Y     HAL2     0.900000E-01   1.00800           0   0.00000     -0.301140E-02
       836 MEMB     7        PMPG     C312     CTL2    -0.180000       12.0110           0   0.00000     -0.301140E-02
       837 MEMB     7        PMPG     H12X     HAL2     0.900000E-01   1.00800           0   0.00000     -0.301140E-02
       838 MEMB     7        PMPG     H12Y     HAL2     0.900000E-01   1.00800           0   0.00000     -0.301140E-02
       839 MEMB     7        PMPG     C313     CTL2    -0.180000       12.0110           0   0.00000     -0.301140E-02
       840 MEMB     7        PMPG     H13X     HAL2     0.900000E-01   1.00800           0   0.00000     -0.301140E-02
       841 MEMB     7        PMPG     H13Y     HAL2     0.900000E-01   1.00800           0   0.00000     -0.301140E-02
       842 MEMB     7        PMPG     C314     CTL2    -0.180000       12.0110           0   0.00000     -0.301140E-02
       843 MEMB     7        PMPG     H14X     HAL2     0.900000E-01   1.00800           0   0.00000     -0.301140E-02
       844 MEMB     7        PMPG     H14Y     HAL2     0.900000E-01   1.00800           0   0.00000     -0.301140E-02
       845 MEMB     7        PMPG     C315     CTL2    -0.180000       12.0110           0   0.00000     -0.301140E-02
       846 MEMB     7        PMPG     H15X     HAL2     0.900000E-01   1.00800           0   0.00000     -0.301140E-02
       847 MEMB     7        PMPG     H15Y     HAL2     0.900000E-01   1.00800           0   0.00000     -0.301140E-02
       848 MEMB     7        PMPG     C316     CTL3    -0.270000       12.0110           0   0.00000     -0.301140E-02
       849 MEMB     7        PMPG     H16X     HAL3     0.900000E-01   1.00800           0   0.00000     -0.301140E-02
       850 MEMB     7        PMPG     H16Y     HAL3     0.900000E-01   1.00800           0   0.00000     -0.301140E-02
       851 MEMB     7        PMPG     H16Z     HAL3     0.900000E-01   1.00800           0   0.00000     -0.301140E-02
       852 MEMB     8        PYPG     C13      CTL2     0.500000E-01   12.0110           0   0.00000     -0.301140E-02
       853 MEMB     8        PYPG     H13A     HAL2     0.900000E-01   1.00800           0   0.00000     -0.301140E-02
       854 MEMB     8        PYPG     H13B     HAL2     0.900000E-01   1.00800           0   0.00000     -0.301140E-02
       855 MEMB     8        PYPG     OC3      OHL     -0.660000       15.9994           0   0.00000     -0.301140E-02
       856 MEMB     8        PYPG     HO3      HOL      0.430000       1.00800           0   0.00000     -0.301140E-02
       857 MEMB     8        PYPG     C12      CTL1     0.140000       12.0110           0   0.00000     -0.301140E-02
       858 MEMB     8        PYPG     H12A     HAL1     0.900000E-01   1.00800           0   0.00000     -0.301140E-02
       859 MEMB     8        PYPG     OC2      OHL     -0.660000       15.9994           0   0.00000     -0.301140E-02
       860 MEMB     8        PYPG     HO2      HOL      0.430000       1.00800           0   0.00000     -0.301140E-02
       861 MEMB     8        PYPG     C11      CTL2    -0.800000E-01   12.0110           0   0.00000     -0.301140E-02
       862 MEMB     8        PYPG     H11A     HAL2     0.900000E-01   1.00800           0   0.00000     -0.301140E-02
       863 MEMB     8        PYPG     H11B     HAL2     0.900000E-01   1.00800           0   0.00000     -0.301140E-02
       864 MEMB     8        PYPG     P        PL        1.50000       30.9740           0   0.00000     -0.301140E-02
       865 MEMB     8        PYPG     O13      O2L     -0.780000       15.9994           0   0.00000     -0.301140E-02
       866 MEMB     8        PYPG     O14      O2L     -0.780000       15.9994           0   0.00000     -0.301140E-02
       867 MEMB     8        PYPG     O11      OSLP    -0.570000       15.9994           0   0.00000     -0.301140E-02
       868 MEMB     8        PYPG     O12      OSLP    -0.570000       15.9994           0   0.00000     -0.301140E-02
       869 MEMB     8        PYPG     C1       CTL2    -0.800000E-01   12.0110           0   0.00000     -0.301140E-02
       870 MEMB     8        PYPG     HA       HAL2     0.900000E-01   1.00800           0   0.00000     -0.301140E-02
       871 MEMB     8        PYPG     HB       HAL2     0.900000E-01   1.00800           0   0.00000     -0.301140E-02
       872 MEMB     8        PYPG     C2       CTL1     0.170000       12.0110           0   0.00000     -0.301140E-02
       873 MEMB     8        PYPG     HS       HAL1     0.900000E-01   1.00800           0   0.00000     -0.301140E-02
       874 MEMB     8        PYPG     O21      OSL     -0.490000       15.9994           0   0.00000     -0.301140E-02
       875 MEMB     8        PYPG     C21      CL       0.900000       12.0110           0   0.00000     -0.301140E-02
       876 MEMB     8        PYPG     O22      OBL     -0.630000       15.9994           0   0.00000     -0.301140E-02
       877 MEMB     8        PYPG     C22      CTL2    -0.220000       12.0110           0   0.00000     -0.301140E-02
       878 MEMB     8        PYPG     H2R      HAL2     0.900000E-01   1.00800           0   0.00000     -0.301140E-02
       879 MEMB     8        PYPG     H2S      HAL2     0.900000E-01   1.00800           0   0.00000     -0.301140E-02
       880 MEMB     8        PYPG     C3       CTL2     0.800000E-01   12.0110           0   0.00000     -0.301140E-02
       881 MEMB     8        PYPG     HX       HAL2     0.900000E-01   1.00800           0   0.00000     -0.301140E-02
       882 MEMB     8        PYPG     HY       HAL2     0.900000E-01   1.00800           0   0.00000     -0.301140E-02
       883 MEMB     8        PYPG     O31      OSL     -0.490000       15.9994           0   0.00000     -0.301140E-02
       884 MEMB     8        PYPG     C31      CL       0.900000       12.0110           0   0.00000     -0.301140E-02
       885 MEMB     8        PYPG     O32      OBL     -0.630000       15.9994           0   0.00000     -0.301140E-02
       886 MEMB     8        PYPG     C32      CTL2    -0.220000       12.0110           0   0.00000     -0.301140E-02
       887 MEMB     8        PYPG     H2X      HAL2     0.900000E-01   1.00800           0   0.00000     -0.301140E-02
       888 MEMB     8        PYPG     H2Y      HAL2     0.900000E-01   1.00800           0   0.00000     -0.301140E-02
       889 MEMB     8        PYPG     C23      CTL2    -0.180000       12.0110           0   0.00000     -0.301140E-02
       890 MEMB     8        PYPG     H3R      HAL2     0.900000E-01   1.00800           0   0.00000     -0.301140E-02
       891 MEMB     8        PYPG     H3S      HAL2     0.900000E-01   1.00800           0   0.00000     -0.301140E-02
       892 MEMB     8        PYPG     C24      CTL2    -0.180000       12.0110           0   0.00000     -0.301140E-02
       893 MEMB     8        PYPG     H4R      HAL2     0.900000E-01   1.00800           0   0.00000     -0.301140E-02
       894 MEMB     8        PYPG     H4S      HAL2     0.900000E-01   1.00800           0   0.00000     -0.301140E-02
       895 MEMB     8        PYPG     C25      CTL2    -0.180000       12.0110           0   0.00000     -0.301140E-02
       896 MEMB     8        PYPG     H5R      HAL2     0.900000E-01   1.00800           0   0.00000     -0.301140E-02
       897 MEMB     8        PYPG     H5S      HAL2     0.900000E-01   1.00800           0   0.00000     -0.301140E-02
       898 MEMB     8        PYPG     C26      CTL2    -0.180000       12.0110           0   0.00000     -0.301140E-02
       899 MEMB     8        PYPG     H6R      HAL2     0.900000E-01   1.00800           0   0.00000     -0.301140E-02
       900 MEMB     8        PYPG     H6S      HAL2     0.900000E-01   1.00800           0   0.00000     -0.301140E-02
       901 MEMB     8        PYPG     C27      CTL2    -0.180000       12.0110           0   0.00000     -0.301140E-02
       902 MEMB     8        PYPG     H7R      HAL2     0.900000E-01   1.00800           0   0.00000     -0.301140E-02
       903 MEMB     8        PYPG     H7S      HAL2     0.900000E-01   1.00800           0   0.00000     -0.301140E-02
       904 MEMB     8        PYPG     C28      CTL2    -0.180000       12.0110           0   0.00000     -0.301140E-02
       905 MEMB     8        PYPG     H8R      HAL2     0.900000E-01   1.00800           0   0.00000     -0.301140E-02
       906 MEMB     8        PYPG     H8S      HAL2     0.900000E-01   1.00800           0   0.00000     -0.301140E-02
       907 MEMB     8        PYPG     C29      CEL1    -0.150000       12.0110           0   0.00000     -0.301140E-02
       908 MEMB     8        PYPG     H9R      HEL1     0.150000       1.00800           0   0.00000     -0.301140E-02
       909 MEMB     8        PYPG     C210     CEL1    -0.150000       12.0110           0   0.00000     -0.301140E-02
       910 MEMB     8        PYPG     H10R     HEL1     0.150000       1.00800           0   0.00000     -0.301140E-02
       911 MEMB     8        PYPG     C211     CTL2    -0.180000       12.0110           0   0.00000     -0.301140E-02
       912 MEMB     8        PYPG     H11R     HAL2     0.900000E-01   1.00800           0   0.00000     -0.301140E-02
       913 MEMB     8        PYPG     H11S     HAL2     0.900000E-01   1.00800           0   0.00000     -0.301140E-02
       914 MEMB     8        PYPG     C212     CTL2    -0.180000       12.0110           0   0.00000     -0.301140E-02
       915 MEMB     8        PYPG     H12R     HAL2     0.900000E-01   1.00800           0   0.00000     -0.301140E-02
       916 MEMB     8        PYPG     H12S     HAL2     0.900000E-01   1.00800           0   0.00000     -0.301140E-02
       917 MEMB     8        PYPG     C213     CTL2    -0.180000       12.0110           0   0.00000     -0.301140E-02
       918 MEMB     8        PYPG     H13R     HAL2     0.900000E-01   1.00800           0   0.00000     -0.301140E-02
       919 MEMB     8        PYPG     H13S     HAL2     0.900000E-01   1.00800           0   0.00000     -0.301140E-02
       920 MEMB     8        PYPG     C214     CTL2    -0.180000       12.0110           0   0.00000     -0.301140E-02
       921 MEMB     8        PYPG     H14R     HAL2     0.900000E-01   1.00800           0   0.00000     -0.301140E-02
       922 MEMB     8        PYPG     H14S     HAL2     0.900000E-01   1.00800           0   0.00000     -0.301140E-02
       923 MEMB     8        PYPG     C215     CTL2    -0.180000       12.0110           0   0.00000     -0.301140E-02
       924 MEMB     8        PYPG     H15R     HAL2     0.900000E-01   1.00800           0   0.00000     -0.301140E-02
       925 MEMB     8        PYPG     H15S     HAL2     0.900000E-01   1.00800           0   0.00000     -0.301140E-02
       926 MEMB     8        PYPG     C216     CTL3    -0.270000       12.0110           0   0.00000     -0.301140E-02
       927 MEMB     8        PYPG     H16R     HAL3     0.900000E-01   1.00800           0   0.00000     -0.301140E-02
       928 MEMB     8        PYPG     H16S     HAL3     0.900000E-01   1.00800           0   0.00000     -0.301140E-02
       929 MEMB     8        PYPG     H16T     HAL3     0.900000E-01   1.00800           0   0.00000     -0.301140E-02
       930 MEMB     8        PYPG     C33      CTL2    -0.180000       12.0110           0   0.00000     -0.301140E-02
       931 MEMB     8        PYPG     H3X      HAL2     0.900000E-01   1.00800           0   0.00000     -0.301140E-02
       932 MEMB     8        PYPG     H3Y      HAL2     0.900000E-01   1.00800           0   0.00000     -0.301140E-02
       933 MEMB     8        PYPG     C34      CTL2    -0.180000       12.0110           0   0.00000     -0.301140E-02
       934 MEMB     8        PYPG     H4X      HAL2     0.900000E-01   1.00800           0   0.00000     -0.301140E-02
       935 MEMB     8        PYPG     H4Y      HAL2     0.900000E-01   1.00800           0   0.00000     -0.301140E-02
       936 MEMB     8        PYPG     C35      CTL2    -0.180000       12.0110           0   0.00000     -0.301140E-02
       937 MEMB     8        PYPG     H5X      HAL2     0.900000E-01   1.00800           0   0.00000     -0.301140E-02
       938 MEMB     8        PYPG     H5Y      HAL2     0.900000E-01   1.00800           0   0.00000     -0.301140E-02
       939 MEMB     8        PYPG     C36      CTL2    -0.180000       12.0110           0   0.00000     -0.301140E-02
       940 MEMB     8        PYPG     H6X      HAL2     0.900000E-01   1.00800           0   0.00000     -0.301140E-02
       941 MEMB     8        PYPG     H6Y      HAL2     0.900000E-01   1.00800           0   0.00000     -0.301140E-02
       942 MEMB     8        PYPG     C37      CTL2    -0.180000       12.0110           0   0.00000     -0.301140E-02
       943 MEMB     8        PYPG     H7X      HAL2     0.900000E-01   1.00800           0   0.00000     -0.301140E-02
       944 MEMB     8        PYPG     H7Y      HAL2     0.900000E-01   1.00800           0   0.00000     -0.301140E-02
       945 MEMB     8        PYPG     C38      CTL2    -0.180000       12.0110           0   0.00000     -0.301140E-02
       946 MEMB     8        PYPG     H8X      HAL2     0.900000E-01   1.00800           0   0.00000     -0.301140E-02
       947 MEMB     8        PYPG     H8Y      HAL2     0.900000E-01   1.00800           0   0.00000     -0.301140E-02
       948 MEMB     8        PYPG     C39      CTL2    -0.180000       12.0110           0   0.00000     -0.301140E-02
       949 MEMB     8        PYPG     H9X      HAL2     0.900000E-01   1.00800           0   0.00000     -0.301140E-02
       950 MEMB     8        PYPG     H9Y      HAL2     0.900000E-01   1.00800           0   0.00000     -0.301140E-02
       951 MEMB     8        PYPG     C310     CTL2    -0.180000       12.0110           0   0.00000     -0.301140E-02
       952 MEMB     8        PYPG     H10X     HAL2     0.900000E-01   1.00800           0   0.00000     -0.301140E-02
       953 MEMB     8        PYPG     H10Y     HAL2     0.900000E-01   1.00800           0   0.00000     -0.301140E-02
       954 MEMB     8        PYPG     C311     CTL2    -0.180000       12.0110           0   0.00000     -0.301140E-02
       955 MEMB     8        PYPG     H11X     HAL2     0.900000E-01   1.00800           0   0.00000     -0.301140E-02
       956 MEMB     8        PYPG     H11Y     HAL2     0.900000E-01   1.00800           0   0.00000     -0.301140E-02
       957 MEMB     8        PYPG     C312     CTL2    -0.180000       12.0110           0   0.00000     -0.301140E-02
       958 MEMB     8        PYPG     H12X     HAL2     0.900000E-01   1.00800           0   0.00000     -0.301140E-02
       959 MEMB     8        PYPG     H12Y     HAL2     0.900000E-01   1.00800           0   0.00000     -0.301140E-02
       960 MEMB     8        PYPG     C313     CTL2    -0.180000       12.0110           0   0.00000     -0.301140E-02
       961 MEMB     8        PYPG     H13X     HAL2     0.900000E-01   1.00800           0   0.00000     -0.301140E-02
       962 MEMB     8        PYPG     H13Y     HAL2     0.900000E-01   1.00800           0   0.00000     -0.301140E-02
       963 MEMB     8        PYPG     C314     CTL2    -0.180000       12.0110           0   0.00000     -0.301140E-02
       964 MEMB     8        PYPG     H14X     HAL2     0.900000E-01   1.00800           0   0.00000     -0.301140E-02
       965 MEMB     8        PYPG     H14Y     HAL2     0.900000E-01   1.00800           0   0.00000     -0.301140E-02
       966 MEMB     8        PYPG     C315     CTL2    -0.180000       12.0110           0   0.00000     -0.301140E-02
       967 MEMB     8        PYPG     H15X     HAL2     0.900000E-01   1.00800           0   0.00000     -0.301140E-02
       968 MEMB     8        PYPG     H15Y     HAL2     0.900000E-01   1.00800           0   0.00000     -0.301140E-02
       969 MEMB     8        PYPG     C316     CTL3    -0.270000       12.0110           0   0.00000     -0.301140E-02
       970 MEMB     8        PYPG     H16X     HAL3     0.900000E-01   1.00800           0   0.00000     -0.301140E-02
       971 MEMB     8        PYPG     H16Y     HAL3     0.900000E-01   1.00800           0   0.00000     -0.301140E-02
       972 MEMB     8        PYPG     H16Z     HAL3     0.900000E-01   1.00800           0   0.00000     -0.301140E-02
       973 MEMB     9        PMPE     N        NH3L    -0.300000       14.0070           0   0.00000     -0.301140E-02
       974 MEMB     9        PMPE     HN1      HCL      0.330000       1.00800           0   0.00000     -0.301140E-02
       975 MEMB     9        PMPE     HN2      HCL      0.330000       1.00800           0   0.00000     -0.301140E-02
       976 MEMB     9        PMPE     HN3      HCL      0.330000       1.00800           0   0.00000     -0.301140E-02
       977 MEMB     9        PMPE     C12      CTL2     0.130000       12.0110           0   0.00000     -0.301140E-02
       978 MEMB     9        PMPE     H12A     HAL2     0.900000E-01   1.00800           0   0.00000     -0.301140E-02
       979 MEMB     9        PMPE     H12B     HAL2     0.900000E-01   1.00800           0   0.00000     -0.301140E-02
       980 MEMB     9        PMPE     C11      CTL2    -0.800000E-01   12.0110           0   0.00000     -0.301140E-02
       981 MEMB     9        PMPE     H11A     HAL2     0.900000E-01   1.00800           0   0.00000     -0.301140E-02
       982 MEMB     9        PMPE     H11B     HAL2     0.900000E-01   1.00800           0   0.00000     -0.301140E-02
       983 MEMB     9        PMPE     P        PL        1.50000       30.9740           0   0.00000     -0.301140E-02
       984 MEMB     9        PMPE     O13      O2L     -0.780000       15.9994           0   0.00000     -0.301140E-02
       985 MEMB     9        PMPE     O14      O2L     -0.780000       15.9994           0   0.00000     -0.301140E-02
       986 MEMB     9        PMPE     O11      OSLP    -0.570000       15.9994           0   0.00000     -0.301140E-02
       987 MEMB     9        PMPE     O12      OSLP    -0.570000       15.9994           0   0.00000     -0.301140E-02
       988 MEMB     9        PMPE     C1       CTL2    -0.800000E-01   12.0110           0   0.00000     -0.301140E-02
       989 MEMB     9        PMPE     HA       HAL2     0.900000E-01   1.00800           0   0.00000     -0.301140E-02
       990 MEMB     9        PMPE     HB       HAL2     0.900000E-01   1.00800           0   0.00000     -0.301140E-02
       991 MEMB     9        PMPE     C2       CTL1     0.170000       12.0110           0   0.00000     -0.301140E-02
       992 MEMB     9        PMPE     HS       HAL1     0.900000E-01   1.00800           0   0.00000     -0.301140E-02
       993 MEMB     9        PMPE     O21      OSL     -0.490000       15.9994           0   0.00000     -0.301140E-02
       994 MEMB     9        PMPE     C21      CL       0.900000       12.0110           0   0.00000     -0.301140E-02
       995 MEMB     9        PMPE     O22      OBL     -0.630000       15.9994           0   0.00000     -0.301140E-02
       996 MEMB     9        PMPE     C22      CTL2    -0.220000       12.0110           0   0.00000     -0.301140E-02
       997 MEMB     9        PMPE     H2R      HAL2     0.900000E-01   1.00800           0   0.00000     -0.301140E-02
       998 MEMB     9        PMPE     H2S      HAL2     0.900000E-01   1.00800           0   0.00000     -0.301140E-02
       999 MEMB     9        PMPE     C3       CTL2     0.800000E-01   12.0110           0   0.00000     -0.301140E-02
      1000 MEMB     9        PMPE     HX       HAL2     0.900000E-01   1.00800           0   0.00000     -0.301140E-02
      1001 MEMB     9        PMPE     HY       HAL2     0.900000E-01   1.00800           0   0.00000     -0.301140E-02
      1002 MEMB     9        PMPE     O31      OSL     -0.490000       15.9994           0   0.00000     -0.301140E-02
      1003 MEMB     9        PMPE     C31      CL       0.900000       12.0110           0   0.00000     -0.301140E-02
      1004 MEMB     9        PMPE     O32      OBL     -0.630000       15.9994           0   0.00000     -0.301140E-02
      1005 MEMB     9        PMPE     C32      CTL2    -0.220000       12.0110           0   0.00000     -0.301140E-02
      1006 MEMB     9        PMPE     H2X      HAL2     0.900000E-01   1.00800           0   0.00000     -0.301140E-02
      1007 MEMB     9        PMPE     H2Y      HAL2     0.900000E-01   1.00800           0   0.00000     -0.301140E-02
      1008 MEMB     9        PMPE     C23      CTL2    -0.180000       12.0110           0   0.00000     -0.301140E-02
      1009 MEMB     9        PMPE     H3R      HAL2     0.900000E-01   1.00800           0   0.00000     -0.301140E-02
      1010 MEMB     9        PMPE     H3S      HAL2     0.900000E-01   1.00800           0   0.00000     -0.301140E-02
      1011 MEMB     9        PMPE     C24      CTL2    -0.180000       12.0110           0   0.00000     -0.301140E-02
      1012 MEMB     9        PMPE     H4R      HAL2     0.900000E-01   1.00800           0   0.00000     -0.301140E-02
      1013 MEMB     9        PMPE     H4S      HAL2     0.900000E-01   1.00800           0   0.00000     -0.301140E-02
      1014 MEMB     9        PMPE     C25      CTL2    -0.180000       12.0110           0   0.00000     -0.301140E-02
      1015 MEMB     9        PMPE     H5R      HAL2     0.900000E-01   1.00800           0   0.00000     -0.301140E-02
      1016 MEMB     9        PMPE     H5S      HAL2     0.900000E-01   1.00800           0   0.00000     -0.301140E-02
      1017 MEMB     9        PMPE     C26      CTL2    -0.180000       12.0110           0   0.00000     -0.301140E-02
      1018 MEMB     9        PMPE     H6R      HAL2     0.900000E-01   1.00800           0   0.00000     -0.301140E-02
      1019 MEMB     9        PMPE     H6S      HAL2     0.900000E-01   1.00800           0   0.00000     -0.301140E-02
      1020 MEMB     9        PMPE     C27      CTL2    -0.180000       12.0110           0   0.00000     -0.301140E-02
      1021 MEMB     9        PMPE     H7R      HAL2     0.900000E-01   1.00800           0   0.00000     -0.301140E-02
      1022 MEMB     9        PMPE     H7S      HAL2     0.900000E-01   1.00800           0   0.00000     -0.301140E-02
      1023 MEMB     9        PMPE     C28      CTL2    -0.180000       12.0110           0   0.00000     -0.301140E-02
      1024 MEMB     9        PMPE     H8R      HAL2     0.900000E-01   1.00800           0   0.00000     -0.301140E-02
      1025 MEMB     9        PMPE     H8S      HAL2     0.900000E-01   1.00800           0   0.00000     -0.301140E-02
      1026 MEMB     9        PMPE     C29      CG3RC1  -0.900000E-01   12.0110           0   0.00000     -0.301140E-02
      1027 MEMB     9        PMPE     H9R      HGA1     0.900000E-01   1.00800           0   0.00000     -0.301140E-02
      1028 MEMB     9        PMPE     C217     CG3C31  -0.180000       12.0110           0   0.00000     -0.301140E-02
      1029 MEMB     9        PMPE     H17R     HGA2     0.900000E-01   1.00800           0   0.00000     -0.301140E-02
      1030 MEMB     9        PMPE     H17S     HGA2     0.900000E-01   1.00800           0   0.00000     -0.301140E-02
      1031 MEMB     9        PMPE     C210     CG3RC1  -0.900000E-01   12.0110           0   0.00000     -0.301140E-02
      1032 MEMB     9        PMPE     H10R     HGA1     0.900000E-01   1.00800           0   0.00000     -0.301140E-02
      1033 MEMB     9        PMPE     C211     CTL2    -0.180000       12.0110           0   0.00000     -0.301140E-02
      1034 MEMB     9        PMPE     H11R     HAL2     0.900000E-01   1.00800           0   0.00000     -0.301140E-02
      1035 MEMB     9        PMPE     H11S     HAL2     0.900000E-01   1.00800           0   0.00000     -0.301140E-02
      1036 MEMB     9        PMPE     C212     CTL2    -0.180000       12.0110           0   0.00000     -0.301140E-02
      1037 MEMB     9        PMPE     H12R     HAL2     0.900000E-01   1.00800           0   0.00000     -0.301140E-02
      1038 MEMB     9        PMPE     H12S     HAL2     0.900000E-01   1.00800           0   0.00000     -0.301140E-02
      1039 MEMB     9        PMPE     C213     CTL2    -0.180000       12.0110           0   0.00000     -0.301140E-02
      1040 MEMB     9        PMPE     H13R     HAL2     0.900000E-01   1.00800           0   0.00000     -0.301140E-02
      1041 MEMB     9        PMPE     H13S     HAL2     0.900000E-01   1.00800           0   0.00000     -0.301140E-02
      1042 MEMB     9        PMPE     C214     CTL2    -0.180000       12.0110           0   0.00000     -0.301140E-02
      1043 MEMB     9        PMPE     H14R     HAL2     0.900000E-01   1.00800           0   0.00000     -0.301140E-02
      1044 MEMB     9        PMPE     H14S     HAL2     0.900000E-01   1.00800           0   0.00000     -0.301140E-02
      1045 MEMB     9        PMPE     C215     CTL2    -0.180000       12.0110           0   0.00000     -0.301140E-02
      1046 MEMB     9        PMPE     H15R     HAL2     0.900000E-01   1.00800           0   0.00000     -0.301140E-02
      1047 MEMB     9        PMPE     H15S     HAL2     0.900000E-01   1.00800           0   0.00000     -0.301140E-02
      1048 MEMB     9        PMPE     C216     CTL3    -0.270000       12.0110           0   0.00000     -0.301140E-02
      1049 MEMB     9        PMPE     H16R     HAL3     0.900000E-01   1.00800           0   0.00000     -0.301140E-02
      1050 MEMB     9        PMPE     H16S     HAL3     0.900000E-01   1.00800           0   0.00000     -0.301140E-02
      1051 MEMB     9        PMPE     H16T     HAL3     0.900000E-01   1.00800           0   0.00000     -0.301140E-02
      1052 MEMB     9        PMPE     C33      CTL2    -0.180000       12.0110           0   0.00000     -0.301140E-02
      1053 MEMB     9        PMPE     H3X      HAL2     0.900000E-01   1.00800           0   0.00000     -0.301140E-02
      1054 MEMB     9        PMPE     H3Y      HAL2     0.900000E-01   1.00800           0   0.00000     -0.301140E-02
      1055 MEMB     9        PMPE     C34      CTL2    -0.180000       12.0110           0   0.00000     -0.301140E-02
      1056 MEMB     9        PMPE     H4X      HAL2     0.900000E-01   1.00800           0   0.00000     -0.301140E-02
      1057 MEMB     9        PMPE     H4Y      HAL2     0.900000E-01   1.00800           0   0.00000     -0.301140E-02
      1058 MEMB     9        PMPE     C35      CTL2    -0.180000       12.0110           0   0.00000     -0.301140E-02
      1059 MEMB     9        PMPE     H5X      HAL2     0.900000E-01   1.00800           0   0.00000     -0.301140E-02
      1060 MEMB     9        PMPE     H5Y      HAL2     0.900000E-01   1.00800           0   0.00000     -0.301140E-02
      1061 MEMB     9        PMPE     C36      CTL2    -0.180000       12.0110           0   0.00000     -0.301140E-02
      1062 MEMB     9        PMPE     H6X      HAL2     0.900000E-01   1.00800           0   0.00000     -0.301140E-02
      1063 MEMB     9        PMPE     H6Y      HAL2     0.900000E-01   1.00800           0   0.00000     -0.301140E-02
      1064 MEMB     9        PMPE     C37      CTL2    -0.180000       12.0110           0   0.00000     -0.301140E-02
      1065 MEMB     9        PMPE     H7X      HAL2     0.900000E-01   1.00800           0   0.00000     -0.301140E-02
      1066 MEMB     9        PMPE     H7Y      HAL2     0.900000E-01   1.00800           0   0.00000     -0.301140E-02
      1067 MEMB     9        PMPE     C38      CTL2    -0.180000       12.0110           0   0.00000     -0.301140E-02
      1068 MEMB     9        PMPE     H8X      HAL2     0.900000E-01   1.00800           0   0.00000     -0.301140E-02
      1069 MEMB     9        PMPE     H8Y      HAL2     0.900000E-01   1.00800           0   0.00000     -0.301140E-02
      1070 MEMB     9        PMPE     C39      CTL2    -0.180000       12.0110           0   0.00000     -0.301140E-02
      1071 MEMB     9        PMPE     H9X      HAL2     0.900000E-01   1.00800           0   0.00000     -0.301140E-02
      1072 MEMB     9        PMPE     H9Y      HAL2     0.900000E-01   1.00800           0   0.00000     -0.301140E-02
      1073 MEMB     9        PMPE     C310     CTL2    -0.180000       12.0110           0   0.00000     -0.301140E-02
      1074 MEMB     9        PMPE     H10X     HAL2     0.900000E-01   1.00800           0   0.00000     -0.301140E-02
      1075 MEMB     9        PMPE     H10Y     HAL2     0.900000E-01   1.00800           0   0.00000     -0.301140E-02
      1076 MEMB     9        PMPE     C311     CTL2    -0.180000       12.0110           0   0.00000     -0.301140E-02
      1077 MEMB     9        PMPE     H11X     HAL2     0.900000E-01   1.00800           0   0.00000     -0.301140E-02
      1078 MEMB     9        PMPE     H11Y     HAL2     0.900000E-01   1.00800           0   0.00000     -0.301140E-02
      1079 MEMB     9        PMPE     C312     CTL2    -0.180000       12.0110           0   0.00000     -0.301140E-02
      1080 MEMB     9        PMPE     H12X     HAL2     0.900000E-01   1.00800           0   0.00000     -0.301140E-02
      1081 MEMB     9        PMPE     H12Y     HAL2     0.900000E-01   1.00800           0   0.00000     -0.301140E-02
      1082 MEMB     9        PMPE     C313     CTL2    -0.180000       12.0110           0   0.00000     -0.301140E-02
      1083 MEMB     9        PMPE     H13X     HAL2     0.900000E-01   1.00800           0   0.00000     -0.301140E-02
      1084 MEMB     9        PMPE     H13Y     HAL2     0.900000E-01   1.00800           0   0.00000     -0.301140E-02
      1085 MEMB     9        PMPE     C314     CTL2    -0.180000       12.0110           0   0.00000     -0.301140E-02
      1086 MEMB     9        PMPE     H14X     HAL2     0.900000E-01   1.00800           0   0.00000     -0.301140E-02
      1087 MEMB     9        PMPE     H14Y     HAL2     0.900000E-01   1.00800           0   0.00000     -0.301140E-02
      1088 MEMB     9        PMPE     C315     CTL2    -0.180000       12.0110           0   0.00000     -0.301140E-02
      1089 MEMB     9        PMPE     H15X     HAL2     0.900000E-01   1.00800           0   0.00000     -0.301140E-02
      1090 MEMB     9        PMPE     H15Y     HAL2     0.900000E-01   1.00800           0   0.00000     -0.301140E-02
      1091 MEMB     9        PMPE     C316     CTL3    -0.270000       12.0110           0   0.00000     -0.301140E-02
      1092 MEMB     9        PMPE     H16X     HAL3     0.900000E-01   1.00800           0   0.00000     -0.301140E-02
      1093 MEMB     9        PMPE     H16Y     HAL3     0.900000E-01   1.00800           0   0.00000     -0.301140E-02
      1094 MEMB     9        PMPE     H16Z     HAL3     0.900000E-01   1.00800           0   0.00000     -0.301140E-02
      1095 MEMB     10       POPE     N        NH3L    -0.300000       14.0070           0   0.00000     -0.301140E-02
      1096 MEMB     10       POPE     HN1      HCL      0.330000       1.00800           0   0.00000     -0.301140E-02
      1097 MEMB     10       POPE     HN2      HCL      0.330000       1.00800           0   0.00000     -0.301140E-02
      1098 MEMB     10       POPE     HN3      HCL      0.330000       1.00800           0   0.00000     -0.301140E-02
      1099 MEMB     10       POPE     C12      CTL2     0.130000       12.0110           0   0.00000     -0.301140E-02
      1100 MEMB     10       POPE     H12A     HAL2     0.900000E-01   1.00800           0   0.00000     -0.301140E-02
      1101 MEMB     10       POPE     H12B     HAL2     0.900000E-01   1.00800           0   0.00000     -0.301140E-02
      1102 MEMB     10       POPE     C11      CTL2    -0.800000E-01   12.0110           0   0.00000     -0.301140E-02
      1103 MEMB     10       POPE     H11A     HAL2     0.900000E-01   1.00800           0   0.00000     -0.301140E-02
      1104 MEMB     10       POPE     H11B     HAL2     0.900000E-01   1.00800           0   0.00000     -0.301140E-02
      1105 MEMB     10       POPE     P        PL        1.50000       30.9740           0   0.00000     -0.301140E-02
      1106 MEMB     10       POPE     O13      O2L     -0.780000       15.9994           0   0.00000     -0.301140E-02
      1107 MEMB     10       POPE     O14      O2L     -0.780000       15.9994           0   0.00000     -0.301140E-02
      1108 MEMB     10       POPE     O11      OSLP    -0.570000       15.9994           0   0.00000     -0.301140E-02
      1109 MEMB     10       POPE     O12      OSLP    -0.570000       15.9994           0   0.00000     -0.301140E-02
      1110 MEMB     10       POPE     C1       CTL2    -0.800000E-01   12.0110           0   0.00000     -0.301140E-02
      1111 MEMB     10       POPE     HA       HAL2     0.900000E-01   1.00800           0   0.00000     -0.301140E-02
      1112 MEMB     10       POPE     HB       HAL2     0.900000E-01   1.00800           0   0.00000     -0.301140E-02
      1113 MEMB     10       POPE     C2       CTL1     0.170000       12.0110           0   0.00000     -0.301140E-02
      1114 MEMB     10       POPE     HS       HAL1     0.900000E-01   1.00800           0   0.00000     -0.301140E-02
      1115 MEMB     10       POPE     O21      OSL     -0.490000       15.9994           0   0.00000     -0.301140E-02
      1116 MEMB     10       POPE     C21      CL       0.900000       12.0110           0   0.00000     -0.301140E-02
      1117 MEMB     10       POPE     O22      OBL     -0.630000       15.9994           0   0.00000     -0.301140E-02
      1118 MEMB     10       POPE     C22      CTL2    -0.220000       12.0110           0   0.00000     -0.301140E-02
      1119 MEMB     10       POPE     H2R      HAL2     0.900000E-01   1.00800           0   0.00000     -0.301140E-02
      1120 MEMB     10       POPE     H2S      HAL2     0.900000E-01   1.00800           0   0.00000     -0.301140E-02
      1121 MEMB     10       POPE     C3       CTL2     0.800000E-01   12.0110           0   0.00000     -0.301140E-02
      1122 MEMB     10       POPE     HX       HAL2     0.900000E-01   1.00800           0   0.00000     -0.301140E-02
      1123 MEMB     10       POPE     HY       HAL2     0.900000E-01   1.00800           0   0.00000     -0.301140E-02
      1124 MEMB     10       POPE     O31      OSL     -0.490000       15.9994           0   0.00000     -0.301140E-02
      1125 MEMB     10       POPE     C31      CL       0.900000       12.0110           0   0.00000     -0.301140E-02
      1126 MEMB     10       POPE     O32      OBL     -0.630000       15.9994           0   0.00000     -0.301140E-02
      1127 MEMB     10       POPE     C32      CTL2    -0.220000       12.0110           0   0.00000     -0.301140E-02
      1128 MEMB     10       POPE     H2X      HAL2     0.900000E-01   1.00800           0   0.00000     -0.301140E-02
      1129 MEMB     10       POPE     H2Y      HAL2     0.900000E-01   1.00800           0   0.00000     -0.301140E-02
      1130 MEMB     10       POPE     C23      CTL2    -0.180000       12.0110           0   0.00000     -0.301140E-02
      1131 MEMB     10       POPE     H3R      HAL2     0.900000E-01   1.00800           0   0.00000     -0.301140E-02
      1132 MEMB     10       POPE     H3S      HAL2     0.900000E-01   1.00800           0   0.00000     -0.301140E-02
      1133 MEMB     10       POPE     C24      CTL2    -0.180000       12.0110           0   0.00000     -0.301140E-02
      1134 MEMB     10       POPE     H4R      HAL2     0.900000E-01   1.00800           0   0.00000     -0.301140E-02
      1135 MEMB     10       POPE     H4S      HAL2     0.900000E-01   1.00800           0   0.00000     -0.301140E-02
      1136 MEMB     10       POPE     C25      CTL2    -0.180000       12.0110           0   0.00000     -0.301140E-02
      1137 MEMB     10       POPE     H5R      HAL2     0.900000E-01   1.00800           0   0.00000     -0.301140E-02
      1138 MEMB     10       POPE     H5S      HAL2     0.900000E-01   1.00800           0   0.00000     -0.301140E-02
      1139 MEMB     10       POPE     C26      CTL2    -0.180000       12.0110           0   0.00000     -0.301140E-02
      1140 MEMB     10       POPE     H6R      HAL2     0.900000E-01   1.00800           0   0.00000     -0.301140E-02
      1141 MEMB     10       POPE     H6S      HAL2     0.900000E-01   1.00800           0   0.00000     -0.301140E-02
      1142 MEMB     10       POPE     C27      CTL2    -0.180000       12.0110           0   0.00000     -0.301140E-02
      1143 MEMB     10       POPE     H7R      HAL2     0.900000E-01   1.00800           0   0.00000     -0.301140E-02
      1144 MEMB     10       POPE     H7S      HAL2     0.900000E-01   1.00800           0   0.00000     -0.301140E-02
      1145 MEMB     10       POPE     C28      CTL2    -0.180000       12.0110           0   0.00000     -0.301140E-02
      1146 MEMB     10       POPE     H8R      HAL2     0.900000E-01   1.00800           0   0.00000     -0.301140E-02
      1147 MEMB     10       POPE     H8S      HAL2     0.900000E-01   1.00800           0   0.00000     -0.301140E-02
      1148 MEMB     10       POPE     C29      CEL1    -0.150000       12.0110           0   0.00000     -0.301140E-02
      1149 MEMB     10       POPE     H91      HEL1     0.150000       1.00800           0   0.00000     -0.301140E-02
      1150 MEMB     10       POPE     C210     CEL1    -0.150000       12.0110           0   0.00000     -0.301140E-02
      1151 MEMB     10       POPE     H101     HEL1     0.150000       1.00800           0   0.00000     -0.301140E-02
      1152 MEMB     10       POPE     C211     CTL2    -0.180000       12.0110           0   0.00000     -0.301140E-02
      1153 MEMB     10       POPE     H11R     HAL2     0.900000E-01   1.00800           0   0.00000     -0.301140E-02
      1154 MEMB     10       POPE     H11S     HAL2     0.900000E-01   1.00800           0   0.00000     -0.301140E-02
      1155 MEMB     10       POPE     C212     CTL2    -0.180000       12.0110           0   0.00000     -0.301140E-02
      1156 MEMB     10       POPE     H12R     HAL2     0.900000E-01   1.00800           0   0.00000     -0.301140E-02
      1157 MEMB     10       POPE     H12S     HAL2     0.900000E-01   1.00800           0   0.00000     -0.301140E-02
      1158 MEMB     10       POPE     C213     CTL2    -0.180000       12.0110           0   0.00000     -0.301140E-02
      1159 MEMB     10       POPE     H13R     HAL2     0.900000E-01   1.00800           0   0.00000     -0.301140E-02
      1160 MEMB     10       POPE     H13S     HAL2     0.900000E-01   1.00800           0   0.00000     -0.301140E-02
      1161 MEMB     10       POPE     C214     CTL2    -0.180000       12.0110           0   0.00000     -0.301140E-02
      1162 MEMB     10       POPE     H14R     HAL2     0.900000E-01   1.00800           0   0.00000     -0.301140E-02
      1163 MEMB     10       POPE     H14S     HAL2     0.900000E-01   1.00800           0   0.00000     -0.301140E-02
      1164 MEMB     10       POPE     C215     CTL2    -0.180000       12.0110           0   0.00000     -0.301140E-02
      1165 MEMB     10       POPE     H15R     HAL2     0.900000E-01   1.00800           0   0.00000     -0.301140E-02
      1166 MEMB     10       POPE     H15S     HAL2     0.900000E-01   1.00800           0   0.00000     -0.301140E-02
      1167 MEMB     10       POPE     C216     CTL2    -0.180000       12.0110           0   0.00000     -0.301140E-02
      1168 MEMB     10       POPE     H16R     HAL2     0.900000E-01   1.00800           0   0.00000     -0.301140E-02
      1169 MEMB     10       POPE     H16S     HAL2     0.900000E-01   1.00800           0   0.00000     -0.301140E-02
      1170 MEMB     10       POPE     C217     CTL2    -0.180000       12.0110           0   0.00000     -0.301140E-02
      1171 MEMB     10       POPE     H17R     HAL2     0.900000E-01   1.00800           0   0.00000     -0.301140E-02
      1172 MEMB     10       POPE     H17S     HAL2     0.900000E-01   1.00800           0   0.00000     -0.301140E-02
      1173 MEMB     10       POPE     C218     CTL3    -0.270000       12.0110           0   0.00000     -0.301140E-02
      1174 MEMB     10       POPE     H18R     HAL3     0.900000E-01   1.00800           0   0.00000     -0.301140E-02
      1175 MEMB     10       POPE     H18S     HAL3     0.900000E-01   1.00800           0   0.00000     -0.301140E-02
      1176 MEMB     10       POPE     H18T     HAL3     0.900000E-01   1.00800           0   0.00000     -0.301140E-02
      1177 MEMB     10       POPE     C33      CTL2    -0.180000       12.0110           0   0.00000     -0.301140E-02
      1178 MEMB     10       POPE     H3X      HAL2     0.900000E-01   1.00800           0   0.00000     -0.301140E-02
      1179 MEMB     10       POPE     H3Y      HAL2     0.900000E-01   1.00800           0   0.00000     -0.301140E-02
      1180 MEMB     10       POPE     C34      CTL2    -0.180000       12.0110           0   0.00000     -0.301140E-02
      1181 MEMB     10       POPE     H4X      HAL2     0.900000E-01   1.00800           0   0.00000     -0.301140E-02
      1182 MEMB     10       POPE     H4Y      HAL2     0.900000E-01   1.00800           0   0.00000     -0.301140E-02
      1183 MEMB     10       POPE     C35      CTL2    -0.180000       12.0110           0   0.00000     -0.301140E-02
      1184 MEMB     10       POPE     H5X      HAL2     0.900000E-01   1.00800           0   0.00000     -0.301140E-02
      1185 MEMB     10       POPE     H5Y      HAL2     0.900000E-01   1.00800           0   0.00000     -0.301140E-02
      1186 MEMB     10       POPE     C36      CTL2    -0.180000       12.0110           0   0.00000     -0.301140E-02
      1187 MEMB     10       POPE     H6X      HAL2     0.900000E-01   1.00800           0   0.00000     -0.301140E-02
      1188 MEMB     10       POPE     H6Y      HAL2     0.900000E-01   1.00800           0   0.00000     -0.301140E-02
      1189 MEMB     10       POPE     C37      CTL2    -0.180000       12.0110           0   0.00000     -0.301140E-02
      1190 MEMB     10       POPE     H7X      HAL2     0.900000E-01   1.00800           0   0.00000     -0.301140E-02
      1191 MEMB     10       POPE     H7Y      HAL2     0.900000E-01   1.00800           0   0.00000     -0.301140E-02
      1192 MEMB     10       POPE     C38      CTL2    -0.180000       12.0110           0   0.00000     -0.301140E-02
      1193 MEMB     10       POPE     H8X      HAL2     0.900000E-01   1.00800           0   0.00000     -0.301140E-02
      1194 MEMB     10       POPE     H8Y      HAL2     0.900000E-01   1.00800           0   0.00000     -0.301140E-02
      1195 MEMB     10       POPE     C39      CTL2    -0.180000       12.0110           0   0.00000     -0.301140E-02
      1196 MEMB     10       POPE     H9X      HAL2     0.900000E-01   1.00800           0   0.00000     -0.301140E-02
      1197 MEMB     10       POPE     H9Y      HAL2     0.900000E-01   1.00800           0   0.00000     -0.301140E-02
      1198 MEMB     10       POPE     C310     CTL2    -0.180000       12.0110           0   0.00000     -0.301140E-02
      1199 MEMB     10       POPE     H10X     HAL2     0.900000E-01   1.00800           0   0.00000     -0.301140E-02
      1200 MEMB     10       POPE     H10Y     HAL2     0.900000E-01   1.00800           0   0.00000     -0.301140E-02
      1201 MEMB     10       POPE     C311     CTL2    -0.180000       12.0110           0   0.00000     -0.301140E-02
      1202 MEMB     10       POPE     H11X     HAL2     0.900000E-01   1.00800           0   0.00000     -0.301140E-02
      1203 MEMB     10       POPE     H11Y     HAL2     0.900000E-01   1.00800           0   0.00000     -0.301140E-02
      1204 MEMB     10       POPE     C312     CTL2    -0.180000       12.0110           0   0.00000     -0.301140E-02
      1205 MEMB     10       POPE     H12X     HAL2     0.900000E-01   1.00800           0   0.00000     -0.301140E-02
      1206 MEMB     10       POPE     H12Y     HAL2     0.900000E-01   1.00800           0   0.00000     -0.301140E-02
      1207 MEMB     10       POPE     C313     CTL2    -0.180000       12.0110           0   0.00000     -0.301140E-02
      1208 MEMB     10       POPE     H13X     HAL2     0.900000E-01   1.00800           0   0.00000     -0.301140E-02
      1209 MEMB     10       POPE     H13Y     HAL2     0.900000E-01   1.00800           0   0.00000     -0.301140E-02
      1210 MEMB     10       POPE     C314     CTL2    -0.180000       12.0110           0   0.00000     -0.301140E-02
      1211 MEMB     10       POPE     H14X     HAL2     0.900000E-01   1.00800           0   0.00000     -0.301140E-02
      1212 MEMB     10       POPE     H14Y     HAL2     0.900000E-01   1.00800           0   0.00000     -0.301140E-02
      1213 MEMB     10       POPE     C315     CTL2    -0.180000       12.0110           0   0.00000     -0.301140E-02
      1214 MEMB     10       POPE     H15X     HAL2     0.900000E-01   1.00800           0   0.00000     -0.301140E-02
      1215 MEMB     10       POPE     H15Y     HAL2     0.900000E-01   1.00800           0   0.00000     -0.301140E-02
      1216 MEMB     10       POPE     C316     CTL3    -0.270000       12.0110           0   0.00000     -0.301140E-02
      1217 MEMB     10       POPE     H16X     HAL3     0.900000E-01   1.00800           0   0.00000     -0.301140E-02
      1218 MEMB     10       POPE     H16Y     HAL3     0.900000E-01   1.00800           0   0.00000     -0.301140E-02
      1219 MEMB     10       POPE     H16Z     HAL3     0.900000E-01   1.00800           0   0.00000     -0.301140E-02
      1220 MEMB     11       PMPE     N        NH3L    -0.300000       14.0070           0   0.00000     -0.301140E-02
      1221 MEMB     11       PMPE     HN1      HCL      0.330000       1.00800           0   0.00000     -0.301140E-02
      1222 MEMB     11       PMPE     HN2      HCL      0.330000       1.00800           0   0.00000     -0.301140E-02
      1223 MEMB     11       PMPE     HN3      HCL      0.330000       1.00800           0   0.00000     -0.301140E-02
      1224 MEMB     11       PMPE     C12      CTL2     0.130000       12.0110           0   0.00000     -0.301140E-02
      1225 MEMB     11       PMPE     H12A     HAL2     0.900000E-01   1.00800           0   0.00000     -0.301140E-02
      1226 MEMB     11       PMPE     H12B     HAL2     0.900000E-01   1.00800           0   0.00000     -0.301140E-02
      1227 MEMB     11       PMPE     C11      CTL2    -0.800000E-01   12.0110           0   0.00000     -0.301140E-02
      1228 MEMB     11       PMPE     H11A     HAL2     0.900000E-01   1.00800           0   0.00000     -0.301140E-02
      1229 MEMB     11       PMPE     H11B     HAL2     0.900000E-01   1.00800           0   0.00000     -0.301140E-02
      1230 MEMB     11       PMPE     P        PL        1.50000       30.9740           0   0.00000     -0.301140E-02
      1231 MEMB     11       PMPE     O13      O2L     -0.780000       15.9994           0   0.00000     -0.301140E-02
      1232 MEMB     11       PMPE     O14      O2L     -0.780000       15.9994           0   0.00000     -0.301140E-02
      1233 MEMB     11       PMPE     O11      OSLP    -0.570000       15.9994           0   0.00000     -0.301140E-02
      1234 MEMB     11       PMPE     O12      OSLP    -0.570000       15.9994           0   0.00000     -0.301140E-02
      1235 MEMB     11       PMPE     C1       CTL2    -0.800000E-01   12.0110           0   0.00000     -0.301140E-02
      1236 MEMB     11       PMPE     HA       HAL2     0.900000E-01   1.00800           0   0.00000     -0.301140E-02
      1237 MEMB     11       PMPE     HB       HAL2     0.900000E-01   1.00800           0   0.00000     -0.301140E-02
      1238 MEMB     11       PMPE     C2       CTL1     0.170000       12.0110           0   0.00000     -0.301140E-02
      1239 MEMB     11       PMPE     HS       HAL1     0.900000E-01   1.00800           0   0.00000     -0.301140E-02
      1240 MEMB     11       PMPE     O21      OSL     -0.490000       15.9994           0   0.00000     -0.301140E-02
      1241 MEMB     11       PMPE     C21      CL       0.900000       12.0110           0   0.00000     -0.301140E-02
      1242 MEMB     11       PMPE     O22      OBL     -0.630000       15.9994           0   0.00000     -0.301140E-02
      1243 MEMB     11       PMPE     C22      CTL2    -0.220000       12.0110           0   0.00000     -0.301140E-02
      1244 MEMB     11       PMPE     H2R      HAL2     0.900000E-01   1.00800           0   0.00000     -0.301140E-02
      1245 MEMB     11       PMPE     H2S      HAL2     0.900000E-01   1.00800           0   0.00000     -0.301140E-02
      1246 MEMB     11       PMPE     C3       CTL2     0.800000E-01   12.0110           0   0.00000     -0.301140E-02
      1247 MEMB     11       PMPE     HX       HAL2     0.900000E-01   1.00800           0   0.00000     -0.301140E-02
      1248 MEMB     11       PMPE     HY       HAL2     0.900000E-01   1.00800           0   0.00000     -0.301140E-02
      1249 MEMB     11       PMPE     O31      OSL     -0.490000       15.9994           0   0.00000     -0.301140E-02
      1250 MEMB     11       PMPE     C31      CL       0.900000       12.0110           0   0.00000     -0.301140E-02
      1251 MEMB     11       PMPE     O32      OBL     -0.630000       15.9994           0   0.00000     -0.301140E-02
      1252 MEMB     11       PMPE     C32      CTL2    -0.220000       12.0110           0   0.00000     -0.301140E-02
      1253 MEMB     11       PMPE     H2X      HAL2     0.900000E-01   1.00800           0   0.00000     -0.301140E-02
      1254 MEMB     11       PMPE     H2Y      HAL2     0.900000E-01   1.00800           0   0.00000     -0.301140E-02
      1255 MEMB     11       PMPE     C23      CTL2    -0.180000       12.0110           0   0.00000     -0.301140E-02
      1256 MEMB     11       PMPE     H3R      HAL2     0.900000E-01   1.00800           0   0.00000     -0.301140E-02
      1257 MEMB     11       PMPE     H3S      HAL2     0.900000E-01   1.00800           0   0.00000     -0.301140E-02
      1258 MEMB     11       PMPE     C24      CTL2    -0.180000       12.0110           0   0.00000     -0.301140E-02
      1259 MEMB     11       PMPE     H4R      HAL2     0.900000E-01   1.00800           0   0.00000     -0.301140E-02
      1260 MEMB     11       PMPE     H4S      HAL2     0.900000E-01   1.00800           0   0.00000     -0.301140E-02
      1261 MEMB     11       PMPE     C25      CTL2    -0.180000       12.0110           0   0.00000     -0.301140E-02
      1262 MEMB     11       PMPE     H5R      HAL2     0.900000E-01   1.00800           0   0.00000     -0.301140E-02
      1263 MEMB     11       PMPE     H5S      HAL2     0.900000E-01   1.00800           0   0.00000     -0.301140E-02
      1264 MEMB     11       PMPE     C26      CTL2    -0.180000       12.0110           0   0.00000     -0.301140E-02
      1265 MEMB     11       PMPE     H6R      HAL2     0.900000E-01   1.00800           0   0.00000     -0.301140E-02
      1266 MEMB     11       PMPE     H6S      HAL2     0.900000E-01   1.00800           0   0.00000     -0.301140E-02
      1267 MEMB     11       PMPE     C27      CTL2    -0.180000       12.0110           0   0.00000     -0.301140E-02
      1268 MEMB     11       PMPE     H7R      HAL2     0.900000E-01   1.00800           0   0.00000     -0.301140E-02
      1269 MEMB     11       PMPE     H7S      HAL2     0.900000E-01   1.00800           0   0.00000     -0.301140E-02
      1270 MEMB     11       PMPE     C28      CTL2    -0.180000       12.0110           0   0.00000     -0.301140E-02
      1271 MEMB     11       PMPE     H8R      HAL2     0.900000E-01   1.00800           0   0.00000     -0.301140E-02
      1272 MEMB     11       PMPE     H8S      HAL2     0.900000E-01   1.00800           0   0.00000     -0.301140E-02
      1273 MEMB     11       PMPE     C29      CG3RC1  -0.900000E-01   12.0110           0   0.00000     -0.301140E-02
      1274 MEMB     11       PMPE     H9R      HGA1     0.900000E-01   1.00800           0   0.00000     -0.301140E-02
      1275 MEMB     11       PMPE     C217     CG3C31  -0.180000       12.0110           0   0.00000     -0.301140E-02
      1276 MEMB     11       PMPE     H17R     HGA2     0.900000E-01   1.00800           0   0.00000     -0.301140E-02
      1277 MEMB     11       PMPE     H17S     HGA2     0.900000E-01   1.00800           0   0.00000     -0.301140E-02
      1278 MEMB     11       PMPE     C210     CG3RC1  -0.900000E-01   12.0110           0   0.00000     -0.301140E-02
      1279 MEMB     11       PMPE     H10R     HGA1     0.900000E-01   1.00800           0   0.00000     -0.301140E-02
      1280 MEMB     11       PMPE     C211     CTL2    -0.180000       12.0110           0   0.00000     -0.301140E-02
      1281 MEMB     11       PMPE     H11R     HAL2     0.900000E-01   1.00800           0   0.00000     -0.301140E-02
      1282 MEMB     11       PMPE     H11S     HAL2     0.900000E-01   1.00800           0   0.00000     -0.301140E-02
      1283 MEMB     11       PMPE     C212     CTL2    -0.180000       12.0110           0   0.00000     -0.301140E-02
      1284 MEMB     11       PMPE     H12R     HAL2     0.900000E-01   1.00800           0   0.00000     -0.301140E-02
      1285 MEMB     11       PMPE     H12S     HAL2     0.900000E-01   1.00800           0   0.00000     -0.301140E-02
      1286 MEMB     11       PMPE     C213     CTL2    -0.180000       12.0110           0   0.00000     -0.301140E-02
      1287 MEMB     11       PMPE     H13R     HAL2     0.900000E-01   1.00800           0   0.00000     -0.301140E-02
      1288 MEMB     11       PMPE     H13S     HAL2     0.900000E-01   1.00800           0   0.00000     -0.301140E-02
      1289 MEMB     11       PMPE     C214     CTL2    -0.180000       12.0110           0   0.00000     -0.301140E-02
      1290 MEMB     11       PMPE     H14R     HAL2     0.900000E-01   1.00800           0   0.00000     -0.301140E-02
      1291 MEMB     11       PMPE     H14S     HAL2     0.900000E-01   1.00800           0   0.00000     -0.301140E-02
      1292 MEMB     11       PMPE     C215     CTL2    -0.180000       12.0110           0   0.00000     -0.301140E-02
      1293 MEMB     11       PMPE     H15R     HAL2     0.900000E-01   1.00800           0   0.00000     -0.301140E-02
      1294 MEMB     11       PMPE     H15S     HAL2     0.900000E-01   1.00800           0   0.00000     -0.301140E-02
      1295 MEMB     11       PMPE     C216     CTL3    -0.270000       12.0110           0   0.00000     -0.301140E-02
      1296 MEMB     11       PMPE     H16R     HAL3     0.900000E-01   1.00800           0   0.00000     -0.301140E-02
      1297 MEMB     11       PMPE     H16S     HAL3     0.900000E-01   1.00800           0   0.00000     -0.301140E-02
      1298 MEMB     11       PMPE     H16T     HAL3     0.900000E-01   1.00800           0   0.00000     -0.301140E-02
      1299 MEMB     11       PMPE     C33      CTL2    -0.180000       12.0110           0   0.00000     -0.301140E-02
      1300 MEMB     11       PMPE     H3X      HAL2     0.900000E-01   1.00800           0   0.00000     -0.301140E-02
      1301 MEMB     11       PMPE     H3Y      HAL2     0.900000E-01   1.00800           0   0.00000     -0.301140E-02
      1302 MEMB     11       PMPE     C34      CTL2    -0.180000       12.0110           0   0.00000     -0.301140E-02
      1303 MEMB     11       PMPE     H4X      HAL2     0.900000E-01   1.00800           0   0.00000     -0.301140E-02
      1304 MEMB     11       PMPE     H4Y      HAL2     0.900000E-01   1.00800           0   0.00000     -0.301140E-02
      1305 MEMB     11       PMPE     C35      CTL2    -0.180000       12.0110           0   0.00000     -0.301140E-02
      1306 MEMB     11       PMPE     H5X      HAL2     0.900000E-01   1.00800           0   0.00000     -0.301140E-02
      1307 MEMB     11       PMPE     H5Y      HAL2     0.900000E-01   1.00800           0   0.00000     -0.301140E-02
      1308 MEMB     11       PMPE     C36      CTL2    -0.180000       12.0110           0   0.00000     -0.301140E-02
      1309 MEMB     11       PMPE     H6X      HAL2     0.900000E-01   1.00800           0   0.00000     -0.301140E-02
      1310 MEMB     11       PMPE     H6Y      HAL2     0.900000E-01   1.00800           0   0.00000     -0.301140E-02
      1311 MEMB     11       PMPE     C37      CTL2    -0.180000       12.0110           0   0.00000     -0.301140E-02
      1312 MEMB     11       PMPE     H7X      HAL2     0.900000E-01   1.00800           0   0.00000     -0.301140E-02
      1313 MEMB     11       PMPE     H7Y      HAL2     0.900000E-01   1.00800           0   0.00000     -0.301140E-02
      1314 MEMB     11       PMPE     C38      CTL2    -0.180000       12.0110           0   0.00000     -0.301140E-02
      1315 MEMB     11       PMPE     H8X      HAL2     0.900000E-01   1.00800           0   0.00000     -0.301140E-02
      1316 MEMB     11       PMPE     H8Y      HAL2     0.900000E-01   1.00800           0   0.00000     -0.301140E-02
      1317 MEMB     11       PMPE     C39      CTL2    -0.180000       12.0110           0   0.00000     -0.301140E-02
      1318 MEMB     11       PMPE     H9X      HAL2     0.900000E-01   1.00800           0   0.00000     -0.301140E-02
      1319 MEMB     11       PMPE     H9Y      HAL2     0.900000E-01   1.00800           0   0.00000     -0.301140E-02
      1320 MEMB     11       PMPE     C310     CTL2    -0.180000       12.0110           0   0.00000     -0.301140E-02
      1321 MEMB     11       PMPE     H10X     HAL2     0.900000E-01   1.00800           0   0.00000     -0.301140E-02
      1322 MEMB     11       PMPE     H10Y     HAL2     0.900000E-01   1.00800           0   0.00000     -0.301140E-02
      1323 MEMB     11       PMPE     C311     CTL2    -0.180000       12.0110           0   0.00000     -0.301140E-02
      1324 MEMB     11       PMPE     H11X     HAL2     0.900000E-01   1.00800           0   0.00000     -0.301140E-02
      1325 MEMB     11       PMPE     H11Y     HAL2     0.900000E-01   1.00800           0   0.00000     -0.301140E-02
      1326 MEMB     11       PMPE     C312     CTL2    -0.180000       12.0110           0   0.00000     -0.301140E-02
      1327 MEMB     11       PMPE     H12X     HAL2     0.900000E-01   1.00800           0   0.00000     -0.301140E-02
      1328 MEMB     11       PMPE     H12Y     HAL2     0.900000E-01   1.00800           0   0.00000     -0.301140E-02
      1329 MEMB     11       PMPE     C313     CTL2    -0.180000       12.0110           0   0.00000     -0.301140E-02
      1330 MEMB     11       PMPE     H13X     HAL2     0.900000E-01   1.00800           0   0.00000     -0.301140E-02
      1331 MEMB     11       PMPE     H13Y     HAL2     0.900000E-01   1.00800           0   0.00000     -0.301140E-02
      1332 MEMB     11       PMPE     C314     CTL2    -0.180000       12.0110           0   0.00000     -0.301140E-02
      1333 MEMB     11       PMPE     H14X     HAL2     0.900000E-01   1.00800           0   0.00000     -0.301140E-02
      1334 MEMB     11       PMPE     H14Y     HAL2     0.900000E-01   1.00800           0   0.00000     -0.301140E-02
      1335 MEMB     11       PMPE     C315     CTL2    -0.180000       12.0110           0   0.00000     -0.301140E-02
      1336 MEMB     11       PMPE     H15X     HAL2     0.900000E-01   1.00800           0   0.00000     -0.301140E-02
      1337 MEMB     11       PMPE     H15Y     HAL2     0.900000E-01   1.00800           0   0.00000     -0.301140E-02
      1338 MEMB     11       PMPE     C316     CTL3    -0.270000       12.0110           0   0.00000     -0.301140E-02
      1339 MEMB     11       PMPE     H16X     HAL3     0.900000E-01   1.00800           0   0.00000     -0.301140E-02
      1340 MEMB     11       PMPE     H16Y     HAL3     0.900000E-01   1.00800           0   0.00000     -0.301140E-02
      1341 MEMB     11       PMPE     H16Z     HAL3     0.900000E-01   1.00800           0   0.00000     -0.301140E-02
      1342 MEMB     12       PMPE     N        NH3L    -0.300000       14.0070           0   0.00000     -0.301140E-02
      1343 MEMB     12       PMPE     HN1      HCL      0.330000       1.00800           0   0.00000     -0.301140E-02
      1344 MEMB     12       PMPE     HN2      HCL      0.330000       1.00800           0   0.00000     -0.301140E-02
      1345 MEMB     12       PMPE     HN3      HCL      0.330000       1.00800           0   0.00000     -0.301140E-02
      1346 MEMB     12       PMPE     C12      CTL2     0.130000       12.0110           0   0.00000     -0.301140E-02
      1347 MEMB     12       PMPE     H12A     HAL2     0.900000E-01   1.00800           0   0.00000     -0.301140E-02
      1348 MEMB     12       PMPE     H12B     HAL2     0.900000E-01   1.00800           0   0.00000     -0.301140E-02
      1349 MEMB     12       PMPE     C11      CTL2    -0.800000E-01   12.0110           0   0.00000     -0.301140E-02
      1350 MEMB     12       PMPE     H11A     HAL2     0.900000E-01   1.00800           0   0.00000     -0.301140E-02
      1351 MEMB     12       PMPE     H11B     HAL2     0.900000E-01   1.00800           0   0.00000     -0.301140E-02
      1352 MEMB     12       PMPE     P        PL        1.50000       30.9740           0   0.00000     -0.301140E-02
      1353 MEMB     12       PMPE     O13      O2L     -0.780000       15.9994           0   0.00000     -0.301140E-02
      1354 MEMB     12       PMPE     O14      O2L     -0.780000       15.9994           0   0.00000     -0.301140E-02
      1355 MEMB     12       PMPE     O11      OSLP    -0.570000       15.9994           0   0.00000     -0.301140E-02
      1356 MEMB     12       PMPE     O12      OSLP    -0.570000       15.9994           0   0.00000     -0.301140E-02
      1357 MEMB     12       PMPE     C1       CTL2    -0.800000E-01   12.0110           0   0.00000     -0.301140E-02
      1358 MEMB     12       PMPE     HA       HAL2     0.900000E-01   1.00800           0   0.00000     -0.301140E-02
      1359 MEMB     12       PMPE     HB       HAL2     0.900000E-01   1.00800           0   0.00000     -0.301140E-02
      1360 MEMB     12       PMPE     C2       CTL1     0.170000       12.0110           0   0.00000     -0.301140E-02
      1361 MEMB     12       PMPE     HS       HAL1     0.900000E-01   1.00800           0   0.00000     -0.301140E-02
      1362 MEMB     12       PMPE     O21      OSL     -0.490000       15.9994           0   0.00000     -0.301140E-02
      1363 MEMB     12       PMPE     C21      CL       0.900000       12.0110           0   0.00000     -0.301140E-02
      1364 MEMB     12       PMPE     O22      OBL     -0.630000       15.9994           0   0.00000     -0.301140E-02
      1365 MEMB     12       PMPE     C22      CTL2    -0.220000       12.0110           0   0.00000     -0.301140E-02
      1366 MEMB     12       PMPE     H2R      HAL2     0.900000E-01   1.00800           0   0.00000     -0.301140E-02
      1367 MEMB     12       PMPE     H2S      HAL2     0.900000E-01   1.00800           0   0.00000     -0.301140E-02
      1368 MEMB     12       PMPE     C3       CTL2     0.800000E-01   12.0110           0   0.00000     -0.301140E-02
      1369 MEMB     12       PMPE     HX       HAL2     0.900000E-01   1.00800           0   0.00000     -0.301140E-02
      1370 MEMB     12       PMPE     HY       HAL2     0.900000E-01   1.00800           0   0.00000     -0.301140E-02
      1371 MEMB     12       PMPE     O31      OSL     -0.490000       15.9994           0   0.00000     -0.301140E-02
      1372 MEMB     12       PMPE     C31      CL       0.900000       12.0110           0   0.00000     -0.301140E-02
      1373 MEMB     12       PMPE     O32      OBL     -0.630000       15.9994           0   0.00000     -0.301140E-02
      1374 MEMB     12       PMPE     C32      CTL2    -0.220000       12.0110           0   0.00000     -0.301140E-02
      1375 MEMB     12       PMPE     H2X      HAL2     0.900000E-01   1.00800           0   0.00000     -0.301140E-02
      1376 MEMB     12       PMPE     H2Y      HAL2     0.900000E-01   1.00800           0   0.00000     -0.301140E-02
      1377 MEMB     12       PMPE     C23      CTL2    -0.180000       12.0110           0   0.00000     -0.301140E-02
      1378 MEMB     12       PMPE     H3R      HAL2     0.900000E-01   1.00800           0   0.00000     -0.301140E-02
      1379 MEMB     12       PMPE     H3S      HAL2     0.900000E-01   1.00800           0   0.00000     -0.301140E-02
      1380 MEMB     12       PMPE     C24      CTL2    -0.180000       12.0110           0   0.00000     -0.301140E-02
      1381 MEMB     12       PMPE     H4R      HAL2     0.900000E-01   1.00800           0   0.00000     -0.301140E-02
      1382 MEMB     12       PMPE     H4S      HAL2     0.900000E-01   1.00800           0   0.00000     -0.301140E-02
      1383 MEMB     12       PMPE     C25      CTL2    -0.180000       12.0110           0   0.00000     -0.301140E-02
      1384 MEMB     12       PMPE     H5R      HAL2     0.900000E-01   1.00800           0   0.00000     -0.301140E-02
      1385 MEMB     12       PMPE     H5S      HAL2     0.900000E-01   1.00800           0   0.00000     -0.301140E-02
      1386 MEMB     12       PMPE     C26      CTL2    -0.180000       12.0110           0   0.00000     -0.301140E-02
      1387 MEMB     12       PMPE     H6R      HAL2     0.900000E-01   1.00800           0   0.00000     -0.301140E-02
      1388 MEMB     12       PMPE     H6S      HAL2     0.900000E-01   1.00800           0   0.00000     -0.301140E-02
      1389 MEMB     12       PMPE     C27      CTL2    -0.180000       12.0110           0   0.00000     -0.301140E-02
      1390 MEMB     12       PMPE     H7R      HAL2     0.900000E-01   1.00800           0   0.00000     -0.301140E-02
      1391 MEMB     12       PMPE     H7S      HAL2     0.900000E-01   1.00800           0   0.00000     -0.301140E-02
      1392 MEMB     12       PMPE     C28      CTL2    -0.180000       12.0110           0   0.00000     -0.301140E-02
      1393 MEMB     12       PMPE     H8R      HAL2     0.900000E-01   1.00800           0   0.00000     -0.301140E-02
      1394 MEMB     12       PMPE     H8S      HAL2     0.900000E-01   1.00800           0   0.00000     -0.301140E-02
      1395 MEMB     12       PMPE     C29      CG3RC1  -0.900000E-01   12.0110           0   0.00000     -0.301140E-02
      1396 MEMB     12       PMPE     H9R      HGA1     0.900000E-01   1.00800           0   0.00000     -0.301140E-02
      1397 MEMB     12       PMPE     C217     CG3C31  -0.180000       12.0110           0   0.00000     -0.301140E-02
      1398 MEMB     12       PMPE     H17R     HGA2     0.900000E-01   1.00800           0   0.00000     -0.301140E-02
      1399 MEMB     12       PMPE     H17S     HGA2     0.900000E-01   1.00800           0   0.00000     -0.301140E-02
      1400 MEMB     12       PMPE     C210     CG3RC1  -0.900000E-01   12.0110           0   0.00000     -0.301140E-02
      1401 MEMB     12       PMPE     H10R     HGA1     0.900000E-01   1.00800           0   0.00000     -0.301140E-02
      1402 MEMB     12       PMPE     C211     CTL2    -0.180000       12.0110           0   0.00000     -0.301140E-02
      1403 MEMB     12       PMPE     H11R     HAL2     0.900000E-01   1.00800           0   0.00000     -0.301140E-02
      1404 MEMB     12       PMPE     H11S     HAL2     0.900000E-01   1.00800           0   0.00000     -0.301140E-02
      1405 MEMB     12       PMPE     C212     CTL2    -0.180000       12.0110           0   0.00000     -0.301140E-02
      1406 MEMB     12       PMPE     H12R     HAL2     0.900000E-01   1.00800           0   0.00000     -0.301140E-02
      1407 MEMB     12       PMPE     H12S     HAL2     0.900000E-01   1.00800           0   0.00000     -0.301140E-02
      1408 MEMB     12       PMPE     C213     CTL2    -0.180000       12.0110           0   0.00000     -0.301140E-02
      1409 MEMB     12       PMPE     H13R     HAL2     0.900000E-01   1.00800           0   0.00000     -0.301140E-02
      1410 MEMB     12       PMPE     H13S     HAL2     0.900000E-01   1.00800           0   0.00000     -0.301140E-02
      1411 MEMB     12       PMPE     C214     CTL2    -0.180000       12.0110           0   0.00000     -0.301140E-02
      1412 MEMB     12       PMPE     H14R     HAL2     0.900000E-01   1.00800           0   0.00000     -0.301140E-02
      1413 MEMB     12       PMPE     H14S     HAL2     0.900000E-01   1.00800           0   0.00000     -0.301140E-02
      1414 MEMB     12       PMPE     C215     CTL2    -0.180000       12.0110           0   0.00000     -0.301140E-02
      1415 MEMB     12       PMPE     H15R     HAL2     0.900000E-01   1.00800           0   0.00000     -0.301140E-02
      1416 MEMB     12       PMPE     H15S     HAL2     0.900000E-01   1.00800           0   0.00000     -0.301140E-02
      1417 MEMB     12       PMPE     C216     CTL3    -0.270000       12.0110           0   0.00000     -0.301140E-02
      1418 MEMB     12       PMPE     H16R     HAL3     0.900000E-01   1.00800           0   0.00000     -0.301140E-02
      1419 MEMB     12       PMPE     H16S     HAL3     0.900000E-01   1.00800           0   0.00000     -0.301140E-02
      1420 MEMB     12       PMPE     H16T     HAL3     0.900000E-01   1.00800           0   0.00000     -0.301140E-02
      1421 MEMB     12       PMPE     C33      CTL2    -0.180000       12.0110           0   0.00000     -0.301140E-02
      1422 MEMB     12       PMPE     H3X      HAL2     0.900000E-01   1.00800           0   0.00000     -0.301140E-02
      1423 MEMB     12       PMPE     H3Y      HAL2     0.900000E-01   1.00800           0   0.00000     -0.301140E-02
      1424 MEMB     12       PMPE     C34      CTL2    -0.180000       12.0110           0   0.00000     -0.301140E-02
      1425 MEMB     12       PMPE     H4X      HAL2     0.900000E-01   1.00800           0   0.00000     -0.301140E-02
      1426 MEMB     12       PMPE     H4Y      HAL2     0.900000E-01   1.00800           0   0.00000     -0.301140E-02
      1427 MEMB     12       PMPE     C35      CTL2    -0.180000       12.0110           0   0.00000     -0.301140E-02
      1428 MEMB     12       PMPE     H5X      HAL2     0.900000E-01   1.00800           0   0.00000     -0.301140E-02
      1429 MEMB     12       PMPE     H5Y      HAL2     0.900000E-01   1.00800           0   0.00000     -0.301140E-02
      1430 MEMB     12       PMPE     C36      CTL2    -0.180000       12.0110           0   0.00000     -0.301140E-02
      1431 MEMB     12       PMPE     H6X      HAL2     0.900000E-01   1.00800           0   0.00000     -0.301140E-02
      1432 MEMB     12       PMPE     H6Y      HAL2     0.900000E-01   1.00800           0   0.00000     -0.301140E-02
      1433 MEMB     12       PMPE     C37      CTL2    -0.180000       12.0110           0   0.00000     -0.301140E-02
      1434 MEMB     12       PMPE     H7X      HAL2     0.900000E-01   1.00800           0   0.00000     -0.301140E-02
      1435 MEMB     12       PMPE     H7Y      HAL2     0.900000E-01   1.00800           0   0.00000     -0.301140E-02
      1436 MEMB     12       PMPE     C38      CTL2    -0.180000       12.0110           0   0.00000     -0.301140E-02
      1437 MEMB     12       PMPE     H8X      HAL2     0.900000E-01   1.00800           0   0.00000     -0.301140E-02
      1438 MEMB     12       PMPE     H8Y      HAL2     0.900000E-01   1.00800           0   0.00000     -0.301140E-02
      1439 MEMB     12       PMPE     C39      CTL2    -0.180000       12.0110           0   0.00000     -0.301140E-02
      1440 MEMB     12       PMPE     H9X      HAL2     0.900000E-01   1.00800           0   0.00000     -0.301140E-02
      1441 MEMB     12       PMPE     H9Y      HAL2     0.900000E-01   1.00800           0   0.00000     -0.301140E-02
      1442 MEMB     12       PMPE     C310     CTL2    -0.180000       12.0110           0   0.00000     -0.301140E-02
      1443 MEMB     12       PMPE     H10X     HAL2     0.900000E-01   1.00800           0   0.00000     -0.301140E-02
      1444 MEMB     12       PMPE     H10Y     HAL2     0.900000E-01   1.00800           0   0.00000     -0.301140E-02
      1445 MEMB     12       PMPE     C311     CTL2    -0.180000       12.0110           0   0.00000     -0.301140E-02
      1446 MEMB     12       PMPE     H11X     HAL2     0.900000E-01   1.00800           0   0.00000     -0.301140E-02
      1447 MEMB     12       PMPE     H11Y     HAL2     0.900000E-01   1.00800           0   0.00000     -0.301140E-02
      1448 MEMB     12       PMPE     C312     CTL2    -0.180000       12.0110           0   0.00000     -0.301140E-02
      1449 MEMB     12       PMPE     H12X     HAL2     0.900000E-01   1.00800           0   0.00000     -0.301140E-02
      1450 MEMB     12       PMPE     H12Y     HAL2     0.900000E-01   1.00800           0   0.00000     -0.301140E-02
      1451 MEMB     12       PMPE     C313     CTL2    -0.180000       12.0110           0   0.00000     -0.301140E-02
      1452 MEMB     12       PMPE     H13X     HAL2     0.900000E-01   1.00800           0   0.00000     -0.301140E-02
      1453 MEMB     12       PMPE     H13Y     HAL2     0.900000E-01   1.00800           0   0.00000     -0.301140E-02
      1454 MEMB     12       PMPE     C314     CTL2    -0.180000       12.0110           0   0.00000     -0.301140E-02
      1455 MEMB     12       PMPE     H14X     HAL2     0.900000E-01   1.00800           0   0.00000     -0.301140E-02
      1456 MEMB     12       PMPE     H14Y     HAL2     0.900000E-01   1.00800           0   0.00000     -0.301140E-02
      1457 MEMB     12       PMPE     C315     CTL2    -0.180000       12.0110           0   0.00000     -0.301140E-02
      1458 MEMB     12       PMPE     H15X     HAL2     0.900000E-01   1.00800           0   0.00000     -0.301140E-02
      1459 MEMB     12       PMPE     H15Y     HAL2     0.900000E-01   1.00800           0   0.00000     -0.301140E-02
      1460 MEMB     12       PMPE     C316     CTL3    -0.270000       12.0110           0   0.00000     -0.301140E-02
      1461 MEMB     12       PMPE     H16X     HAL3     0.900000E-01   1.00800           0   0.00000     -0.301140E-02
      1462 MEMB     12       PMPE     H16Y     HAL3     0.900000E-01   1.00800           0   0.00000     -0.301140E-02
      1463 MEMB     12       PMPE     H16Z     HAL3     0.900000E-01   1.00800           0   0.00000     -0.301140E-02
      1464 MEMB     13       POPE     N        NH3L    -0.300000       14.0070           0   0.00000     -0.301140E-02
      1465 MEMB     13       POPE     HN1      HCL      0.330000       1.00800           0   0.00000     -0.301140E-02
      1466 MEMB     13       POPE     HN2      HCL      0.330000       1.00800           0   0.00000     -0.301140E-02
      1467 MEMB     13       POPE     HN3      HCL      0.330000       1.00800           0   0.00000     -0.301140E-02
      1468 MEMB     13       POPE     C12      CTL2     0.130000       12.0110           0   0.00000     -0.301140E-02
      1469 MEMB     13       POPE     H12A     HAL2     0.900000E-01   1.00800           0   0.00000     -0.301140E-02
      1470 MEMB     13       POPE     H12B     HAL2     0.900000E-01   1.00800           0   0.00000     -0.301140E-02
      1471 MEMB     13       POPE     C11      CTL2    -0.800000E-01   12.0110           0   0.00000     -0.301140E-02
      1472 MEMB     13       POPE     H11A     HAL2     0.900000E-01   1.00800           0   0.00000     -0.301140E-02
      1473 MEMB     13       POPE     H11B     HAL2     0.900000E-01   1.00800           0   0.00000     -0.301140E-02
      1474 MEMB     13       POPE     P        PL        1.50000       30.9740           0   0.00000     -0.301140E-02
      1475 MEMB     13       POPE     O13      O2L     -0.780000       15.9994           0   0.00000     -0.301140E-02
      1476 MEMB     13       POPE     O14      O2L     -0.780000       15.9994           0   0.00000     -0.301140E-02
      1477 MEMB     13       POPE     O11      OSLP    -0.570000       15.9994           0   0.00000     -0.301140E-02
      1478 MEMB     13       POPE     O12      OSLP    -0.570000       15.9994           0   0.00000     -0.301140E-02
      1479 MEMB     13       POPE     C1       CTL2    -0.800000E-01   12.0110           0   0.00000     -0.301140E-02
      1480 MEMB     13       POPE     HA       HAL2     0.900000E-01   1.00800           0   0.00000     -0.301140E-02
      1481 MEMB     13       POPE     HB       HAL2     0.900000E-01   1.00800           0   0.00000     -0.301140E-02
      1482 MEMB     13       POPE     C2       CTL1     0.170000       12.0110           0   0.00000     -0.301140E-02
      1483 MEMB     13       POPE     HS       HAL1     0.900000E-01   1.00800           0   0.00000     -0.301140E-02
      1484 MEMB     13       POPE     O21      OSL     -0.490000       15.9994           0   0.00000     -0.301140E-02
      1485 MEMB     13       POPE     C21      CL       0.900000       12.0110           0   0.00000     -0.301140E-02
      1486 MEMB     13       POPE     O22      OBL     -0.630000       15.9994           0   0.00000     -0.301140E-02
      1487 MEMB     13       POPE     C22      CTL2    -0.220000       12.0110           0   0.00000     -0.301140E-02
      1488 MEMB     13       POPE     H2R      HAL2     0.900000E-01   1.00800           0   0.00000     -0.301140E-02
      1489 MEMB     13       POPE     H2S      HAL2     0.900000E-01   1.00800           0   0.00000     -0.301140E-02
      1490 MEMB     13       POPE     C3       CTL2     0.800000E-01   12.0110           0   0.00000     -0.301140E-02
      1491 MEMB     13       POPE     HX       HAL2     0.900000E-01   1.00800           0   0.00000     -0.301140E-02
      1492 MEMB     13       POPE     HY       HAL2     0.900000E-01   1.00800           0   0.00000     -0.301140E-02
      1493 MEMB     13       POPE     O31      OSL     -0.490000       15.9994           0   0.00000     -0.301140E-02
      1494 MEMB     13       POPE     C31      CL       0.900000       12.0110           0   0.00000     -0.301140E-02
      1495 MEMB     13       POPE     O32      OBL     -0.630000       15.9994           0   0.00000     -0.301140E-02
      1496 MEMB     13       POPE     C32      CTL2    -0.220000       12.0110           0   0.00000     -0.301140E-02
      1497 MEMB     13       POPE     H2X      HAL2     0.900000E-01   1.00800           0   0.00000     -0.301140E-02
      1498 MEMB     13       POPE     H2Y      HAL2     0.900000E-01   1.00800           0   0.00000     -0.301140E-02
      1499 MEMB     13       POPE     C23      CTL2    -0.180000       12.0110           0   0.00000     -0.301140E-02
      1500 MEMB     13       POPE     H3R      HAL2     0.900000E-01   1.00800           0   0.00000     -0.301140E-02
      1501 MEMB     13       POPE     H3S      HAL2     0.900000E-01   1.00800           0   0.00000     -0.301140E-02
      1502 MEMB     13       POPE     C24      CTL2    -0.180000       12.0110           0   0.00000     -0.301140E-02
      1503 MEMB     13       POPE     H4R      HAL2     0.900000E-01   1.00800           0   0.00000     -0.301140E-02
      1504 MEMB     13       POPE     H4S      HAL2     0.900000E-01   1.00800           0   0.00000     -0.301140E-02
      1505 MEMB     13       POPE     C25      CTL2    -0.180000       12.0110           0   0.00000     -0.301140E-02
      1506 MEMB     13       POPE     H5R      HAL2     0.900000E-01   1.00800           0   0.00000     -0.301140E-02
      1507 MEMB     13       POPE     H5S      HAL2     0.900000E-01   1.00800           0   0.00000     -0.301140E-02
      1508 MEMB     13       POPE     C26      CTL2    -0.180000       12.0110           0   0.00000     -0.301140E-02
      1509 MEMB     13       POPE     H6R      HAL2     0.900000E-01   1.00800           0   0.00000     -0.301140E-02
      1510 MEMB     13       POPE     H6S      HAL2     0.900000E-01   1.00800           0   0.00000     -0.301140E-02
      1511 MEMB     13       POPE     C27      CTL2    -0.180000       12.0110           0   0.00000     -0.301140E-02
      1512 MEMB     13       POPE     H7R      HAL2     0.900000E-01   1.00800           0   0.00000     -0.301140E-02
      1513 MEMB     13       POPE     H7S      HAL2     0.900000E-01   1.00800           0   0.00000     -0.301140E-02
      1514 MEMB     13       POPE     C28      CTL2    -0.180000       12.0110           0   0.00000     -0.301140E-02
      1515 MEMB     13       POPE     H8R      HAL2     0.900000E-01   1.00800           0   0.00000     -0.301140E-02
      1516 MEMB     13       POPE     H8S      HAL2     0.900000E-01   1.00800           0   0.00000     -0.301140E-02
      1517 MEMB     13       POPE     C29      CEL1    -0.150000       12.0110           0   0.00000     -0.301140E-02
      1518 MEMB     13       POPE     H91      HEL1     0.150000       1.00800           0   0.00000     -0.301140E-02
      1519 MEMB     13       POPE     C210     CEL1    -0.150000       12.0110           0   0.00000     -0.301140E-02
      1520 MEMB     13       POPE     H101     HEL1     0.150000       1.00800           0   0.00000     -0.301140E-02
      1521 MEMB     13       POPE     C211     CTL2    -0.180000       12.0110           0   0.00000     -0.301140E-02
      1522 MEMB     13       POPE     H11R     HAL2     0.900000E-01   1.00800           0   0.00000     -0.301140E-02
      1523 MEMB     13       POPE     H11S     HAL2     0.900000E-01   1.00800           0   0.00000     -0.301140E-02
      1524 MEMB     13       POPE     C212     CTL2    -0.180000       12.0110           0   0.00000     -0.301140E-02
      1525 MEMB     13       POPE     H12R     HAL2     0.900000E-01   1.00800           0   0.00000     -0.301140E-02
      1526 MEMB     13       POPE     H12S     HAL2     0.900000E-01   1.00800           0   0.00000     -0.301140E-02
      1527 MEMB     13       POPE     C213     CTL2    -0.180000       12.0110           0   0.00000     -0.301140E-02
      1528 MEMB     13       POPE     H13R     HAL2     0.900000E-01   1.00800           0   0.00000     -0.301140E-02
      1529 MEMB     13       POPE     H13S     HAL2     0.900000E-01   1.00800           0   0.00000     -0.301140E-02
      1530 MEMB     13       POPE     C214     CTL2    -0.180000       12.0110           0   0.00000     -0.301140E-02
      1531 MEMB     13       POPE     H14R     HAL2     0.900000E-01   1.00800           0   0.00000     -0.301140E-02
      1532 MEMB     13       POPE     H14S     HAL2     0.900000E-01   1.00800           0   0.00000     -0.301140E-02
      1533 MEMB     13       POPE     C215     CTL2    -0.180000       12.0110           0   0.00000     -0.301140E-02
      1534 MEMB     13       POPE     H15R     HAL2     0.900000E-01   1.00800           0   0.00000     -0.301140E-02
      1535 MEMB     13       POPE     H15S     HAL2     0.900000E-01   1.00800           0   0.00000     -0.301140E-02
      1536 MEMB     13       POPE     C216     CTL2    -0.180000       12.0110           0   0.00000     -0.301140E-02
      1537 MEMB     13       POPE     H16R     HAL2     0.900000E-01   1.00800           0   0.00000     -0.301140E-02
      1538 MEMB     13       POPE     H16S     HAL2     0.900000E-01   1.00800           0   0.00000     -0.301140E-02
      1539 MEMB     13       POPE     C217     CTL2    -0.180000       12.0110           0   0.00000     -0.301140E-02
      1540 MEMB     13       POPE     H17R     HAL2     0.900000E-01   1.00800           0   0.00000     -0.301140E-02
      1541 MEMB     13       POPE     H17S     HAL2     0.900000E-01   1.00800           0   0.00000     -0.301140E-02
      1542 MEMB     13       POPE     C218     CTL3    -0.270000       12.0110           0   0.00000     -0.301140E-02
      1543 MEMB     13       POPE     H18R     HAL3     0.900000E-01   1.00800           0   0.00000     -0.301140E-02
      1544 MEMB     13       POPE     H18S     HAL3     0.900000E-01   1.00800           0   0.00000     -0.301140E-02
      1545 MEMB     13       POPE     H18T     HAL3     0.900000E-01   1.00800           0   0.00000     -0.301140E-02
      1546 MEMB     13       POPE     C33      CTL2    -0.180000       12.0110           0   0.00000     -0.301140E-02
      1547 MEMB     13       POPE     H3X      HAL2     0.900000E-01   1.00800           0   0.00000     -0.301140E-02
      1548 MEMB     13       POPE     H3Y      HAL2     0.900000E-01   1.00800           0   0.00000     -0.301140E-02
      1549 MEMB     13       POPE     C34      CTL2    -0.180000       12.0110           0   0.00000     -0.301140E-02
      1550 MEMB     13       POPE     H4X      HAL2     0.900000E-01   1.00800           0   0.00000     -0.301140E-02
      1551 MEMB     13       POPE     H4Y      HAL2     0.900000E-01   1.00800           0   0.00000     -0.301140E-02
      1552 MEMB     13       POPE     C35      CTL2    -0.180000       12.0110           0   0.00000     -0.301140E-02
      1553 MEMB     13       POPE     H5X      HAL2     0.900000E-01   1.00800           0   0.00000     -0.301140E-02
      1554 MEMB     13       POPE     H5Y      HAL2     0.900000E-01   1.00800           0   0.00000     -0.301140E-02
      1555 MEMB     13       POPE     C36      CTL2    -0.180000       12.0110           0   0.00000     -0.301140E-02
      1556 MEMB     13       POPE     H6X      HAL2     0.900000E-01   1.00800           0   0.00000     -0.301140E-02
      1557 MEMB     13       POPE     H6Y      HAL2     0.900000E-01   1.00800           0   0.00000     -0.301140E-02
      1558 MEMB     13       POPE     C37      CTL2    -0.180000       12.0110           0   0.00000     -0.301140E-02
      1559 MEMB     13       POPE     H7X      HAL2     0.900000E-01   1.00800           0   0.00000     -0.301140E-02
      1560 MEMB     13       POPE     H7Y      HAL2     0.900000E-01   1.00800           0   0.00000     -0.301140E-02
      1561 MEMB     13       POPE     C38      CTL2    -0.180000       12.0110           0   0.00000     -0.301140E-02
      1562 MEMB     13       POPE     H8X      HAL2     0.900000E-01   1.00800           0   0.00000     -0.301140E-02
      1563 MEMB     13       POPE     H8Y      HAL2     0.900000E-01   1.00800           0   0.00000     -0.301140E-02
      1564 MEMB     13       POPE     C39      CTL2    -0.180000       12.0110           0   0.00000     -0.301140E-02
      1565 MEMB     13       POPE     H9X      HAL2     0.900000E-01   1.00800           0   0.00000     -0.301140E-02
      1566 MEMB     13       POPE     H9Y      HAL2     0.900000E-01   1.00800           0   0.00000     -0.301140E-02
      1567 MEMB     13       POPE     C310     CTL2    -0.180000       12.0110           0   0.00000     -0.301140E-02
      1568 MEMB     13       POPE     H10X     HAL2     0.900000E-01   1.00800           0   0.00000     -0.301140E-02
      1569 MEMB     13       POPE     H10Y     HAL2     0.900000E-01   1.00800           0   0.00000     -0.301140E-02
      1570 MEMB     13       POPE     C311     CTL2    -0.180000       12.0110           0   0.00000     -0.301140E-02
      1571 MEMB     13       POPE     H11X     HAL2     0.900000E-01   1.00800           0   0.00000     -0.301140E-02
      1572 MEMB     13       POPE     H11Y     HAL2     0.900000E-01   1.00800           0   0.00000     -0.301140E-02
      1573 MEMB     13       POPE     C312     CTL2    -0.180000       12.0110           0   0.00000     -0.301140E-02
      1574 MEMB     13       POPE     H12X     HAL2     0.900000E-01   1.00800           0   0.00000     -0.301140E-02
      1575 MEMB     13       POPE     H12Y     HAL2     0.900000E-01   1.00800           0   0.00000     -0.301140E-02
      1576 MEMB     13       POPE     C313     CTL2    -0.180000       12.0110           0   0.00000     -0.301140E-02
      1577 MEMB     13       POPE     H13X     HAL2     0.900000E-01   1.00800           0   0.00000     -0.301140E-02
      1578 MEMB     13       POPE     H13Y     HAL2     0.900000E-01   1.00800           0   0.00000     -0.301140E-02
      1579 MEMB     13       POPE     C314     CTL2    -0.180000       12.0110           0   0.00000     -0.301140E-02
      1580 MEMB     13       POPE     H14X     HAL2     0.900000E-01   1.00800           0   0.00000     -0.301140E-02
      1581 MEMB     13       POPE     H14Y     HAL2     0.900000E-01   1.00800           0   0.00000     -0.301140E-02
      1582 MEMB     13       POPE     C315     CTL2    -0.180000       12.0110           0   0.00000     -0.301140E-02
      1583 MEMB     13       POPE     H15X     HAL2     0.900000E-01   1.00800           0   0.00000     -0.301140E-02
      1584 MEMB     13       POPE     H15Y     HAL2     0.900000E-01   1.00800           0   0.00000     -0.301140E-02
      1585 MEMB     13       POPE     C316     CTL3    -0.270000       12.0110           0   0.00000     -0.301140E-02
      1586 MEMB     13       POPE     H16X     HAL3     0.900000E-01   1.00800           0   0.00000     -0.301140E-02
      1587 MEMB     13       POPE     H16Y     HAL3     0.900000E-01   1.00800           0   0.00000     -0.301140E-02
      1588 MEMB     13       POPE     H16Z     HAL3     0.900000E-01   1.00800           0   0.00000     -0.301140E-02
      1589 MEMB     14       PMPE     N        NH3L    -0.300000       14.0070           0   0.00000     -0.301140E-02
      1590 MEMB     14       PMPE     HN1      HCL      0.330000       1.00800           0   0.00000     -0.301140E-02
      1591 MEMB     14       PMPE     HN2      HCL      0.330000       1.00800           0   0.00000     -0.301140E-02
      1592 MEMB     14       PMPE     HN3      HCL      0.330000       1.00800           0   0.00000     -0.301140E-02
      1593 MEMB     14       PMPE     C12      CTL2     0.130000       12.0110           0   0.00000     -0.301140E-02
      1594 MEMB     14       PMPE     H12A     HAL2     0.900000E-01   1.00800           0   0.00000     -0.301140E-02
      1595 MEMB     14       PMPE     H12B     HAL2     0.900000E-01   1.00800           0   0.00000     -0.301140E-02
      1596 MEMB     14       PMPE     C11      CTL2    -0.800000E-01   12.0110           0   0.00000     -0.301140E-02
      1597 MEMB     14       PMPE     H11A     HAL2     0.900000E-01   1.00800           0   0.00000     -0.301140E-02
      1598 MEMB     14       PMPE     H11B     HAL2     0.900000E-01   1.00800           0   0.00000     -0.301140E-02
      1599 MEMB     14       PMPE     P        PL        1.50000       30.9740           0   0.00000     -0.301140E-02
      1600 MEMB     14       PMPE     O13      O2L     -0.780000       15.9994           0   0.00000     -0.301140E-02
      1601 MEMB     14       PMPE     O14      O2L     -0.780000       15.9994           0   0.00000     -0.301140E-02
      1602 MEMB     14       PMPE     O11      OSLP    -0.570000       15.9994           0   0.00000     -0.301140E-02
      1603 MEMB     14       PMPE     O12      OSLP    -0.570000       15.9994           0   0.00000     -0.301140E-02
      1604 MEMB     14       PMPE     C1       CTL2    -0.800000E-01   12.0110           0   0.00000     -0.301140E-02
      1605 MEMB     14       PMPE     HA       HAL2     0.900000E-01   1.00800           0   0.00000     -0.301140E-02
      1606 MEMB     14       PMPE     HB       HAL2     0.900000E-01   1.00800           0   0.00000     -0.301140E-02
      1607 MEMB     14       PMPE     C2       CTL1     0.170000       12.0110           0   0.00000     -0.301140E-02
      1608 MEMB     14       PMPE     HS       HAL1     0.900000E-01   1.00800           0   0.00000     -0.301140E-02
      1609 MEMB     14       PMPE     O21      OSL     -0.490000       15.9994           0   0.00000     -0.301140E-02
      1610 MEMB     14       PMPE     C21      CL       0.900000       12.0110           0   0.00000     -0.301140E-02
      1611 MEMB     14       PMPE     O22      OBL     -0.630000       15.9994           0   0.00000     -0.301140E-02
      1612 MEMB     14       PMPE     C22      CTL2    -0.220000       12.0110           0   0.00000     -0.301140E-02
      1613 MEMB     14       PMPE     H2R      HAL2     0.900000E-01   1.00800           0   0.00000     -0.301140E-02
      1614 MEMB     14       PMPE     H2S      HAL2     0.900000E-01   1.00800           0   0.00000     -0.301140E-02
      1615 MEMB     14       PMPE     C3       CTL2     0.800000E-01   12.0110           0   0.00000     -0.301140E-02
      1616 MEMB     14       PMPE     HX       HAL2     0.900000E-01   1.00800           0   0.00000     -0.301140E-02
      1617 MEMB     14       PMPE     HY       HAL2     0.900000E-01   1.00800           0   0.00000     -0.301140E-02
      1618 MEMB     14       PMPE     O31      OSL     -0.490000       15.9994           0   0.00000     -0.301140E-02
      1619 MEMB     14       PMPE     C31      CL       0.900000       12.0110           0   0.00000     -0.301140E-02
      1620 MEMB     14       PMPE     O32      OBL     -0.630000       15.9994           0   0.00000     -0.301140E-02
      1621 MEMB     14       PMPE     C32      CTL2    -0.220000       12.0110           0   0.00000     -0.301140E-02
      1622 MEMB     14       PMPE     H2X      HAL2     0.900000E-01   1.00800           0   0.00000     -0.301140E-02
      1623 MEMB     14       PMPE     H2Y      HAL2     0.900000E-01   1.00800           0   0.00000     -0.301140E-02
      1624 MEMB     14       PMPE     C23      CTL2    -0.180000       12.0110           0   0.00000     -0.301140E-02
      1625 MEMB     14       PMPE     H3R      HAL2     0.900000E-01   1.00800           0   0.00000     -0.301140E-02
      1626 MEMB     14       PMPE     H3S      HAL2     0.900000E-01   1.00800           0   0.00000     -0.301140E-02
      1627 MEMB     14       PMPE     C24      CTL2    -0.180000       12.0110           0   0.00000     -0.301140E-02
      1628 MEMB     14       PMPE     H4R      HAL2     0.900000E-01   1.00800           0   0.00000     -0.301140E-02
      1629 MEMB     14       PMPE     H4S      HAL2     0.900000E-01   1.00800           0   0.00000     -0.301140E-02
      1630 MEMB     14       PMPE     C25      CTL2    -0.180000       12.0110           0   0.00000     -0.301140E-02
      1631 MEMB     14       PMPE     H5R      HAL2     0.900000E-01   1.00800           0   0.00000     -0.301140E-02
      1632 MEMB     14       PMPE     H5S      HAL2     0.900000E-01   1.00800           0   0.00000     -0.301140E-02
      1633 MEMB     14       PMPE     C26      CTL2    -0.180000       12.0110           0   0.00000     -0.301140E-02
      1634 MEMB     14       PMPE     H6R      HAL2     0.900000E-01   1.00800           0   0.00000     -0.301140E-02
      1635 MEMB     14       PMPE     H6S      HAL2     0.900000E-01   1.00800           0   0.00000     -0.301140E-02
      1636 MEMB     14       PMPE     C27      CTL2    -0.180000       12.0110           0   0.00000     -0.301140E-02
      1637 MEMB     14       PMPE     H7R      HAL2     0.900000E-01   1.00800           0   0.00000     -0.301140E-02
      1638 MEMB     14       PMPE     H7S      HAL2     0.900000E-01   1.00800           0   0.00000     -0.301140E-02
      1639 MEMB     14       PMPE     C28      CTL2    -0.180000       12.0110           0   0.00000     -0.301140E-02
      1640 MEMB     14       PMPE     H8R      HAL2     0.900000E-01   1.00800           0   0.00000     -0.301140E-02
      1641 MEMB     14       PMPE     H8S      HAL2     0.900000E-01   1.00800           0   0.00000     -0.301140E-02
      1642 MEMB     14       PMPE     C29      CG3RC1  -0.900000E-01   12.0110           0   0.00000     -0.301140E-02
      1643 MEMB     14       PMPE     H9R      HGA1     0.900000E-01   1.00800           0   0.00000     -0.301140E-02
      1644 MEMB     14       PMPE     C217     CG3C31  -0.180000       12.0110           0   0.00000     -0.301140E-02
      1645 MEMB     14       PMPE     H17R     HGA2     0.900000E-01   1.00800           0   0.00000     -0.301140E-02
      1646 MEMB     14       PMPE     H17S     HGA2     0.900000E-01   1.00800           0   0.00000     -0.301140E-02
      1647 MEMB     14       PMPE     C210     CG3RC1  -0.900000E-01   12.0110           0   0.00000     -0.301140E-02
      1648 MEMB     14       PMPE     H10R     HGA1     0.900000E-01   1.00800           0   0.00000     -0.301140E-02
      1649 MEMB     14       PMPE     C211     CTL2    -0.180000       12.0110           0   0.00000     -0.301140E-02
      1650 MEMB     14       PMPE     H11R     HAL2     0.900000E-01   1.00800           0   0.00000     -0.301140E-02
      1651 MEMB     14       PMPE     H11S     HAL2     0.900000E-01   1.00800           0   0.00000     -0.301140E-02
      1652 MEMB     14       PMPE     C212     CTL2    -0.180000       12.0110           0   0.00000     -0.301140E-02
      1653 MEMB     14       PMPE     H12R     HAL2     0.900000E-01   1.00800           0   0.00000     -0.301140E-02
      1654 MEMB     14       PMPE     H12S     HAL2     0.900000E-01   1.00800           0   0.00000     -0.301140E-02
      1655 MEMB     14       PMPE     C213     CTL2    -0.180000       12.0110           0   0.00000     -0.301140E-02
      1656 MEMB     14       PMPE     H13R     HAL2     0.900000E-01   1.00800           0   0.00000     -0.301140E-02
      1657 MEMB     14       PMPE     H13S     HAL2     0.900000E-01   1.00800           0   0.00000     -0.301140E-02
      1658 MEMB     14       PMPE     C214     CTL2    -0.180000       12.0110           0   0.00000     -0.301140E-02
      1659 MEMB     14       PMPE     H14R     HAL2     0.900000E-01   1.00800           0   0.00000     -0.301140E-02
      1660 MEMB     14       PMPE     H14S     HAL2     0.900000E-01   1.00800           0   0.00000     -0.301140E-02
      1661 MEMB     14       PMPE     C215     CTL2    -0.180000       12.0110           0   0.00000     -0.301140E-02
      1662 MEMB     14       PMPE     H15R     HAL2     0.900000E-01   1.00800           0   0.00000     -0.301140E-02
      1663 MEMB     14       PMPE     H15S     HAL2     0.900000E-01   1.00800           0   0.00000     -0.301140E-02
      1664 MEMB     14       PMPE     C216     CTL3    -0.270000       12.0110           0   0.00000     -0.301140E-02
      1665 MEMB     14       PMPE     H16R     HAL3     0.900000E-01   1.00800           0   0.00000     -0.301140E-02
      1666 MEMB     14       PMPE     H16S     HAL3     0.900000E-01   1.00800           0   0.00000     -0.301140E-02
      1667 MEMB     14       PMPE     H16T     HAL3     0.900000E-01   1.00800           0   0.00000     -0.301140E-02
      1668 MEMB     14       PMPE     C33      CTL2    -0.180000       12.0110           0   0.00000     -0.301140E-02
      1669 MEMB     14       PMPE     H3X      HAL2     0.900000E-01   1.00800           0   0.00000     -0.301140E-02
      1670 MEMB     14       PMPE     H3Y      HAL2     0.900000E-01   1.00800           0   0.00000     -0.301140E-02
      1671 MEMB     14       PMPE     C34      CTL2    -0.180000       12.0110           0   0.00000     -0.301140E-02
      1672 MEMB     14       PMPE     H4X      HAL2     0.900000E-01   1.00800           0   0.00000     -0.301140E-02
      1673 MEMB     14       PMPE     H4Y      HAL2     0.900000E-01   1.00800           0   0.00000     -0.301140E-02
      1674 MEMB     14       PMPE     C35      CTL2    -0.180000       12.0110           0   0.00000     -0.301140E-02
      1675 MEMB     14       PMPE     H5X      HAL2     0.900000E-01   1.00800           0   0.00000     -0.301140E-02
      1676 MEMB     14       PMPE     H5Y      HAL2     0.900000E-01   1.00800           0   0.00000     -0.301140E-02
      1677 MEMB     14       PMPE     C36      CTL2    -0.180000       12.0110           0   0.00000     -0.301140E-02
      1678 MEMB     14       PMPE     H6X      HAL2     0.900000E-01   1.00800           0   0.00000     -0.301140E-02
      1679 MEMB     14       PMPE     H6Y      HAL2     0.900000E-01   1.00800           0   0.00000     -0.301140E-02
      1680 MEMB     14       PMPE     C37      CTL2    -0.180000       12.0110           0   0.00000     -0.301140E-02
      1681 MEMB     14       PMPE     H7X      HAL2     0.900000E-01   1.00800           0   0.00000     -0.301140E-02
      1682 MEMB     14       PMPE     H7Y      HAL2     0.900000E-01   1.00800           0   0.00000     -0.301140E-02
      1683 MEMB     14       PMPE     C38      CTL2    -0.180000       12.0110           0   0.00000     -0.301140E-02
      1684 MEMB     14       PMPE     H8X      HAL2     0.900000E-01   1.00800           0   0.00000     -0.301140E-02
      1685 MEMB     14       PMPE     H8Y      HAL2     0.900000E-01   1.00800           0   0.00000     -0.301140E-02
      1686 MEMB     14       PMPE     C39      CTL2    -0.180000       12.0110           0   0.00000     -0.301140E-02
      1687 MEMB     14       PMPE     H9X      HAL2     0.900000E-01   1.00800           0   0.00000     -0.301140E-02
      1688 MEMB     14       PMPE     H9Y      HAL2     0.900000E-01   1.00800           0   0.00000     -0.301140E-02
      1689 MEMB     14       PMPE     C310     CTL2    -0.180000       12.0110           0   0.00000     -0.301140E-02
      1690 MEMB     14       PMPE     H10X     HAL2     0.900000E-01   1.00800           0   0.00000     -0.301140E-02
      1691 MEMB     14       PMPE     H10Y     HAL2     0.900000E-01   1.00800           0   0.00000     -0.301140E-02
      1692 MEMB     14       PMPE     C311     CTL2    -0.180000       12.0110           0   0.00000     -0.301140E-02
      1693 MEMB     14       PMPE     H11X     HAL2     0.900000E-01   1.00800           0   0.00000     -0.301140E-02
      1694 MEMB     14       PMPE     H11Y     HAL2     0.900000E-01   1.00800           0   0.00000     -0.301140E-02
      1695 MEMB     14       PMPE     C312     CTL2    -0.180000       12.0110           0   0.00000     -0.301140E-02
      1696 MEMB     14       PMPE     H12X     HAL2     0.900000E-01   1.00800           0   0.00000     -0.301140E-02
      1697 MEMB     14       PMPE     H12Y     HAL2     0.900000E-01   1.00800           0   0.00000     -0.301140E-02
      1698 MEMB     14       PMPE     C313     CTL2    -0.180000       12.0110           0   0.00000     -0.301140E-02
      1699 MEMB     14       PMPE     H13X     HAL2     0.900000E-01   1.00800           0   0.00000     -0.301140E-02
      1700 MEMB     14       PMPE     H13Y     HAL2     0.900000E-01   1.00800           0   0.00000     -0.301140E-02
      1701 MEMB     14       PMPE     C314     CTL2    -0.180000       12.0110           0   0.00000     -0.301140E-02
      1702 MEMB     14       PMPE     H14X     HAL2     0.900000E-01   1.00800           0   0.00000     -0.301140E-02
      1703 MEMB     14       PMPE     H14Y     HAL2     0.900000E-01   1.00800           0   0.00000     -0.301140E-02
      1704 MEMB     14       PMPE     C315     CTL2    -0.180000       12.0110           0   0.00000     -0.301140E-02
      1705 MEMB     14       PMPE     H15X     HAL2     0.900000E-01   1.00800           0   0.00000     -0.301140E-02
      1706 MEMB     14       PMPE     H15Y     HAL2     0.900000E-01   1.00800           0   0.00000     -0.301140E-02
      1707 MEMB     14       PMPE     C316     CTL3    -0.270000       12.0110           0   0.00000     -0.301140E-02
      1708 MEMB     14       PMPE     H16X     HAL3     0.900000E-01   1.00800           0   0.00000     -0.301140E-02
      1709 MEMB     14       PMPE     H16Y     HAL3     0.900000E-01   1.00800           0   0.00000     -0.301140E-02
      1710 MEMB     14       PMPE     H16Z     HAL3     0.900000E-01   1.00800           0   0.00000     -0.301140E-02
      1711 MEMB     15       OYPE     N        NH3L    -0.300000       14.0070           0   0.00000     -0.301140E-02
      1712 MEMB     15       OYPE     HN1      HCL      0.330000       1.00800           0   0.00000     -0.301140E-02
      1713 MEMB     15       OYPE     HN2      HCL      0.330000       1.00800           0   0.00000     -0.301140E-02
      1714 MEMB     15       OYPE     HN3      HCL      0.330000       1.00800           0   0.00000     -0.301140E-02
      1715 MEMB     15       OYPE     C12      CTL2     0.130000       12.0110           0   0.00000     -0.301140E-02
      1716 MEMB     15       OYPE     H12A     HAL2     0.900000E-01   1.00800           0   0.00000     -0.301140E-02
      1717 MEMB     15       OYPE     H12B     HAL2     0.900000E-01   1.00800           0   0.00000     -0.301140E-02
      1718 MEMB     15       OYPE     C11      CTL2    -0.800000E-01   12.0110           0   0.00000     -0.301140E-02
      1719 MEMB     15       OYPE     H11A     HAL2     0.900000E-01   1.00800           0   0.00000     -0.301140E-02
      1720 MEMB     15       OYPE     H11B     HAL2     0.900000E-01   1.00800           0   0.00000     -0.301140E-02
      1721 MEMB     15       OYPE     P        PL        1.50000       30.9740           0   0.00000     -0.301140E-02
      1722 MEMB     15       OYPE     O13      O2L     -0.780000       15.9994           0   0.00000     -0.301140E-02
      1723 MEMB     15       OYPE     O14      O2L     -0.780000       15.9994           0   0.00000     -0.301140E-02
      1724 MEMB     15       OYPE     O11      OSLP    -0.570000       15.9994           0   0.00000     -0.301140E-02
      1725 MEMB     15       OYPE     O12      OSLP    -0.570000       15.9994           0   0.00000     -0.301140E-02
      1726 MEMB     15       OYPE     C1       CTL2    -0.800000E-01   12.0110           0   0.00000     -0.301140E-02
      1727 MEMB     15       OYPE     HA       HAL2     0.900000E-01   1.00800           0   0.00000     -0.301140E-02
      1728 MEMB     15       OYPE     HB       HAL2     0.900000E-01   1.00800           0   0.00000     -0.301140E-02
      1729 MEMB     15       OYPE     C2       CTL1     0.170000       12.0110           0   0.00000     -0.301140E-02
      1730 MEMB     15       OYPE     HS       HAL1     0.900000E-01   1.00800           0   0.00000     -0.301140E-02
      1731 MEMB     15       OYPE     O21      OSL     -0.490000       15.9994           0   0.00000     -0.301140E-02
      1732 MEMB     15       OYPE     C21      CL       0.900000       12.0110           0   0.00000     -0.301140E-02
      1733 MEMB     15       OYPE     O22      OBL     -0.630000       15.9994           0   0.00000     -0.301140E-02
      1734 MEMB     15       OYPE     C22      CTL2    -0.220000       12.0110           0   0.00000     -0.301140E-02
      1735 MEMB     15       OYPE     H2R      HAL2     0.900000E-01   1.00800           0   0.00000     -0.301140E-02
      1736 MEMB     15       OYPE     H2S      HAL2     0.900000E-01   1.00800           0   0.00000     -0.301140E-02
      1737 MEMB     15       OYPE     C3       CTL2     0.800000E-01   12.0110           0   0.00000     -0.301140E-02
      1738 MEMB     15       OYPE     HX       HAL2     0.900000E-01   1.00800           0   0.00000     -0.301140E-02
      1739 MEMB     15       OYPE     HY       HAL2     0.900000E-01   1.00800           0   0.00000     -0.301140E-02
      1740 MEMB     15       OYPE     O31      OSL     -0.490000       15.9994           0   0.00000     -0.301140E-02
      1741 MEMB     15       OYPE     C31      CL       0.900000       12.0110           0   0.00000     -0.301140E-02
      1742 MEMB     15       OYPE     O32      OBL     -0.630000       15.9994           0   0.00000     -0.301140E-02
      1743 MEMB     15       OYPE     C32      CTL2    -0.220000       12.0110           0   0.00000     -0.301140E-02
      1744 MEMB     15       OYPE     H2X      HAL2     0.900000E-01   1.00800           0   0.00000     -0.301140E-02
      1745 MEMB     15       OYPE     H2Y      HAL2     0.900000E-01   1.00800           0   0.00000     -0.301140E-02
      1746 MEMB     15       OYPE     C23      CTL2    -0.180000       12.0110           0   0.00000     -0.301140E-02
      1747 MEMB     15       OYPE     H3R      HAL2     0.900000E-01   1.00800           0   0.00000     -0.301140E-02
      1748 MEMB     15       OYPE     H3S      HAL2     0.900000E-01   1.00800           0   0.00000     -0.301140E-02
      1749 MEMB     15       OYPE     C24      CTL2    -0.180000       12.0110           0   0.00000     -0.301140E-02
      1750 MEMB     15       OYPE     H4R      HAL2     0.900000E-01   1.00800           0   0.00000     -0.301140E-02
      1751 MEMB     15       OYPE     H4S      HAL2     0.900000E-01   1.00800           0   0.00000     -0.301140E-02
      1752 MEMB     15       OYPE     C25      CTL2    -0.180000       12.0110           0   0.00000     -0.301140E-02
      1753 MEMB     15       OYPE     H5R      HAL2     0.900000E-01   1.00800           0   0.00000     -0.301140E-02
      1754 MEMB     15       OYPE     H5S      HAL2     0.900000E-01   1.00800           0   0.00000     -0.301140E-02
      1755 MEMB     15       OYPE     C26      CTL2    -0.180000       12.0110           0   0.00000     -0.301140E-02
      1756 MEMB     15       OYPE     H6R      HAL2     0.900000E-01   1.00800           0   0.00000     -0.301140E-02
      1757 MEMB     15       OYPE     H6S      HAL2     0.900000E-01   1.00800           0   0.00000     -0.301140E-02
      1758 MEMB     15       OYPE     C27      CTL2    -0.180000       12.0110           0   0.00000     -0.301140E-02
      1759 MEMB     15       OYPE     H7R      HAL2     0.900000E-01   1.00800           0   0.00000     -0.301140E-02
      1760 MEMB     15       OYPE     H7S      HAL2     0.900000E-01   1.00800           0   0.00000     -0.301140E-02
      1761 MEMB     15       OYPE     C28      CTL2    -0.180000       12.0110           0   0.00000     -0.301140E-02
      1762 MEMB     15       OYPE     H8R      HAL2     0.900000E-01   1.00800           0   0.00000     -0.301140E-02
      1763 MEMB     15       OYPE     H8S      HAL2     0.900000E-01   1.00800           0   0.00000     -0.301140E-02
      1764 MEMB     15       OYPE     C29      CEL1    -0.150000       12.0110           0   0.00000     -0.301140E-02
      1765 MEMB     15       OYPE     H9R      HEL1     0.150000       1.00800           0   0.00000     -0.301140E-02
      1766 MEMB     15       OYPE     C210     CEL1    -0.150000       12.0110           0   0.00000     -0.301140E-02
      1767 MEMB     15       OYPE     H10R     HEL1     0.150000       1.00800           0   0.00000     -0.301140E-02
      1768 MEMB     15       OYPE     C211     CTL2    -0.180000       12.0110           0   0.00000     -0.301140E-02
      1769 MEMB     15       OYPE     H11R     HAL2     0.900000E-01   1.00800           0   0.00000     -0.301140E-02
      1770 MEMB     15       OYPE     H11S     HAL2     0.900000E-01   1.00800           0   0.00000     -0.301140E-02
      1771 MEMB     15       OYPE     C212     CTL2    -0.180000       12.0110           0   0.00000     -0.301140E-02
      1772 MEMB     15       OYPE     H12R     HAL2     0.900000E-01   1.00800           0   0.00000     -0.301140E-02
      1773 MEMB     15       OYPE     H12S     HAL2     0.900000E-01   1.00800           0   0.00000     -0.301140E-02
      1774 MEMB     15       OYPE     C213     CTL2    -0.180000       12.0110           0   0.00000     -0.301140E-02
      1775 MEMB     15       OYPE     H13R     HAL2     0.900000E-01   1.00800           0   0.00000     -0.301140E-02
      1776 MEMB     15       OYPE     H13S     HAL2     0.900000E-01   1.00800           0   0.00000     -0.301140E-02
      1777 MEMB     15       OYPE     C214     CTL2    -0.180000       12.0110           0   0.00000     -0.301140E-02
      1778 MEMB     15       OYPE     H14R     HAL2     0.900000E-01   1.00800           0   0.00000     -0.301140E-02
      1779 MEMB     15       OYPE     H14S     HAL2     0.900000E-01   1.00800           0   0.00000     -0.301140E-02
      1780 MEMB     15       OYPE     C215     CTL2    -0.180000       12.0110           0   0.00000     -0.301140E-02
      1781 MEMB     15       OYPE     H15R     HAL2     0.900000E-01   1.00800           0   0.00000     -0.301140E-02
      1782 MEMB     15       OYPE     H15S     HAL2     0.900000E-01   1.00800           0   0.00000     -0.301140E-02
      1783 MEMB     15       OYPE     C216     CTL3    -0.270000       12.0110           0   0.00000     -0.301140E-02
      1784 MEMB     15       OYPE     H16R     HAL3     0.900000E-01   1.00800           0   0.00000     -0.301140E-02
      1785 MEMB     15       OYPE     H16S     HAL3     0.900000E-01   1.00800           0   0.00000     -0.301140E-02
      1786 MEMB     15       OYPE     H16T     HAL3     0.900000E-01   1.00800           0   0.00000     -0.301140E-02
      1787 MEMB     15       OYPE     C33      CTL2    -0.180000       12.0110           0   0.00000     -0.301140E-02
      1788 MEMB     15       OYPE     H3X      HAL2     0.900000E-01   1.00800           0   0.00000     -0.301140E-02
      1789 MEMB     15       OYPE     H3Y      HAL2     0.900000E-01   1.00800           0   0.00000     -0.301140E-02
      1790 MEMB     15       OYPE     C34      CTL2    -0.180000       12.0110           0   0.00000     -0.301140E-02
      1791 MEMB     15       OYPE     H4X      HAL2     0.900000E-01   1.00800           0   0.00000     -0.301140E-02
      1792 MEMB     15       OYPE     H4Y      HAL2     0.900000E-01   1.00800           0   0.00000     -0.301140E-02
      1793 MEMB     15       OYPE     C35      CTL2    -0.180000       12.0110           0   0.00000     -0.301140E-02
      1794 MEMB     15       OYPE     H5X      HAL2     0.900000E-01   1.00800           0   0.00000     -0.301140E-02
      1795 MEMB     15       OYPE     H5Y      HAL2     0.900000E-01   1.00800           0   0.00000     -0.301140E-02
      1796 MEMB     15       OYPE     C36      CTL2    -0.180000       12.0110           0   0.00000     -0.301140E-02
      1797 MEMB     15       OYPE     H6X      HAL2     0.900000E-01   1.00800           0   0.00000     -0.301140E-02
      1798 MEMB     15       OYPE     H6Y      HAL2     0.900000E-01   1.00800           0   0.00000     -0.301140E-02
      1799 MEMB     15       OYPE     C37      CTL2    -0.180000       12.0110           0   0.00000     -0.301140E-02
      1800 MEMB     15       OYPE     H7X      HAL2     0.900000E-01   1.00800           0   0.00000     -0.301140E-02
      1801 MEMB     15       OYPE     H7Y      HAL2     0.900000E-01   1.00800           0   0.00000     -0.301140E-02
      1802 MEMB     15       OYPE     C38      CTL2    -0.180000       12.0110           0   0.00000     -0.301140E-02
      1803 MEMB     15       OYPE     H8X      HAL2     0.900000E-01   1.00800           0   0.00000     -0.301140E-02
      1804 MEMB     15       OYPE     H8Y      HAL2     0.900000E-01   1.00800           0   0.00000     -0.301140E-02
      1805 MEMB     15       OYPE     C39      CEL1    -0.150000       12.0110           0   0.00000     -0.301140E-02
      1806 MEMB     15       OYPE     H9X      HEL1     0.150000       1.00800           0   0.00000     -0.301140E-02
      1807 MEMB     15       OYPE     C310     CEL1    -0.150000       12.0110           0   0.00000     -0.301140E-02
      1808 MEMB     15       OYPE     H10X     HEL1     0.150000       1.00800           0   0.00000     -0.301140E-02
      1809 MEMB     15       OYPE     C311     CTL2    -0.180000       12.0110           0   0.00000     -0.301140E-02
      1810 MEMB     15       OYPE     H11X     HAL2     0.900000E-01   1.00800           0   0.00000     -0.301140E-02
      1811 MEMB     15       OYPE     H11Y     HAL2     0.900000E-01   1.00800           0   0.00000     -0.301140E-02
      1812 MEMB     15       OYPE     C312     CTL2    -0.180000       12.0110           0   0.00000     -0.301140E-02
      1813 MEMB     15       OYPE     H12X     HAL2     0.900000E-01   1.00800           0   0.00000     -0.301140E-02
      1814 MEMB     15       OYPE     H12Y     HAL2     0.900000E-01   1.00800           0   0.00000     -0.301140E-02
      1815 MEMB     15       OYPE     C313     CTL2    -0.180000       12.0110           0   0.00000     -0.301140E-02
      1816 MEMB     15       OYPE     H13X     HAL2     0.900000E-01   1.00800           0   0.00000     -0.301140E-02
      1817 MEMB     15       OYPE     H13Y     HAL2     0.900000E-01   1.00800           0   0.00000     -0.301140E-02
      1818 MEMB     15       OYPE     C314     CTL2    -0.180000       12.0110           0   0.00000     -0.301140E-02
      1819 MEMB     15       OYPE     H14X     HAL2     0.900000E-01   1.00800           0   0.00000     -0.301140E-02
      1820 MEMB     15       OYPE     H14Y     HAL2     0.900000E-01   1.00800           0   0.00000     -0.301140E-02
      1821 MEMB     15       OYPE     C315     CTL2    -0.180000       12.0110           0   0.00000     -0.301140E-02
      1822 MEMB     15       OYPE     H15X     HAL2     0.900000E-01   1.00800           0   0.00000     -0.301140E-02
      1823 MEMB     15       OYPE     H15Y     HAL2     0.900000E-01   1.00800           0   0.00000     -0.301140E-02
      1824 MEMB     15       OYPE     C316     CTL2    -0.180000       12.0110           0   0.00000     -0.301140E-02
      1825 MEMB     15       OYPE     H16X     HAL2     0.900000E-01   1.00800           0   0.00000     -0.301140E-02
      1826 MEMB     15       OYPE     H16Y     HAL2     0.900000E-01   1.00800           0   0.00000     -0.301140E-02
      1827 MEMB     15       OYPE     C317     CTL2    -0.180000       12.0110           0   0.00000     -0.301140E-02
      1828 MEMB     15       OYPE     H17X     HAL2     0.900000E-01   1.00800           0   0.00000     -0.301140E-02
      1829 MEMB     15       OYPE     H17Y     HAL2     0.900000E-01   1.00800           0   0.00000     -0.301140E-02
      1830 MEMB     15       OYPE     C318     CTL3    -0.270000       12.0110           0   0.00000     -0.301140E-02
      1831 MEMB     15       OYPE     H18X     HAL3     0.900000E-01   1.00800           0   0.00000     -0.301140E-02
      1832 MEMB     15       OYPE     H18Y     HAL3     0.900000E-01   1.00800           0   0.00000     -0.301140E-02
      1833 MEMB     15       OYPE     H18Z     HAL3     0.900000E-01   1.00800           0   0.00000     -0.301140E-02
      1834 MEMB     16       PYPG     C13      CTL2     0.500000E-01   12.0110           0   0.00000     -0.301140E-02
      1835 MEMB     16       PYPG     H13A     HAL2     0.900000E-01   1.00800           0   0.00000     -0.301140E-02
      1836 MEMB     16       PYPG     H13B     HAL2     0.900000E-01   1.00800           0   0.00000     -0.301140E-02
      1837 MEMB     16       PYPG     OC3      OHL     -0.660000       15.9994           0   0.00000     -0.301140E-02
      1838 MEMB     16       PYPG     HO3      HOL      0.430000       1.00800           0   0.00000     -0.301140E-02
      1839 MEMB     16       PYPG     C12      CTL1     0.140000       12.0110           0   0.00000     -0.301140E-02
      1840 MEMB     16       PYPG     H12A     HAL1     0.900000E-01   1.00800           0   0.00000     -0.301140E-02
      1841 MEMB     16       PYPG     OC2      OHL     -0.660000       15.9994           0   0.00000     -0.301140E-02
      1842 MEMB     16       PYPG     HO2      HOL      0.430000       1.00800           0   0.00000     -0.301140E-02
      1843 MEMB     16       PYPG     C11      CTL2    -0.800000E-01   12.0110           0   0.00000     -0.301140E-02
      1844 MEMB     16       PYPG     H11A     HAL2     0.900000E-01   1.00800           0   0.00000     -0.301140E-02
      1845 MEMB     16       PYPG     H11B     HAL2     0.900000E-01   1.00800           0   0.00000     -0.301140E-02
      1846 MEMB     16       PYPG     P        PL        1.50000       30.9740           0   0.00000     -0.301140E-02
      1847 MEMB     16       PYPG     O13      O2L     -0.780000       15.9994           0   0.00000     -0.301140E-02
      1848 MEMB     16       PYPG     O14      O2L     -0.780000       15.9994           0   0.00000     -0.301140E-02
      1849 MEMB     16       PYPG     O11      OSLP    -0.570000       15.9994           0   0.00000     -0.301140E-02
      1850 MEMB     16       PYPG     O12      OSLP    -0.570000       15.9994           0   0.00000     -0.301140E-02
      1851 MEMB     16       PYPG     C1       CTL2    -0.800000E-01   12.0110           0   0.00000     -0.301140E-02
      1852 MEMB     16       PYPG     HA       HAL2     0.900000E-01   1.00800           0   0.00000     -0.301140E-02
      1853 MEMB     16       PYPG     HB       HAL2     0.900000E-01   1.00800           0   0.00000     -0.301140E-02
      1854 MEMB     16       PYPG     C2       CTL1     0.170000       12.0110           0   0.00000     -0.301140E-02
      1855 MEMB     16       PYPG     HS       HAL1     0.900000E-01   1.00800           0   0.00000     -0.301140E-02
      1856 MEMB     16       PYPG     O21      OSL     -0.490000       15.9994           0   0.00000     -0.301140E-02
      1857 MEMB     16       PYPG     C21      CL       0.900000       12.0110           0   0.00000     -0.301140E-02
      1858 MEMB     16       PYPG     O22      OBL     -0.630000       15.9994           0   0.00000     -0.301140E-02
      1859 MEMB     16       PYPG     C22      CTL2    -0.220000       12.0110           0   0.00000     -0.301140E-02
      1860 MEMB     16       PYPG     H2R      HAL2     0.900000E-01   1.00800           0   0.00000     -0.301140E-02
      1861 MEMB     16       PYPG     H2S      HAL2     0.900000E-01   1.00800           0   0.00000     -0.301140E-02
      1862 MEMB     16       PYPG     C3       CTL2     0.800000E-01   12.0110           0   0.00000     -0.301140E-02
      1863 MEMB     16       PYPG     HX       HAL2     0.900000E-01   1.00800           0   0.00000     -0.301140E-02
      1864 MEMB     16       PYPG     HY       HAL2     0.900000E-01   1.00800           0   0.00000     -0.301140E-02
      1865 MEMB     16       PYPG     O31      OSL     -0.490000       15.9994           0   0.00000     -0.301140E-02
      1866 MEMB     16       PYPG     C31      CL       0.900000       12.0110           0   0.00000     -0.301140E-02
      1867 MEMB     16       PYPG     O32      OBL     -0.630000       15.9994           0   0.00000     -0.301140E-02
      1868 MEMB     16       PYPG     C32      CTL2    -0.220000       12.0110           0   0.00000     -0.301140E-02
      1869 MEMB     16       PYPG     H2X      HAL2     0.900000E-01   1.00800           0   0.00000     -0.301140E-02
      1870 MEMB     16       PYPG     H2Y      HAL2     0.900000E-01   1.00800           0   0.00000     -0.301140E-02
      1871 MEMB     16       PYPG     C23      CTL2    -0.180000       12.0110           0   0.00000     -0.301140E-02
      1872 MEMB     16       PYPG     H3R      HAL2     0.900000E-01   1.00800           0   0.00000     -0.301140E-02
      1873 MEMB     16       PYPG     H3S      HAL2     0.900000E-01   1.00800           0   0.00000     -0.301140E-02
      1874 MEMB     16       PYPG     C24      CTL2    -0.180000       12.0110           0   0.00000     -0.301140E-02
      1875 MEMB     16       PYPG     H4R      HAL2     0.900000E-01   1.00800           0   0.00000     -0.301140E-02
      1876 MEMB     16       PYPG     H4S      HAL2     0.900000E-01   1.00800           0   0.00000     -0.301140E-02
      1877 MEMB     16       PYPG     C25      CTL2    -0.180000       12.0110           0   0.00000     -0.301140E-02
      1878 MEMB     16       PYPG     H5R      HAL2     0.900000E-01   1.00800           0   0.00000     -0.301140E-02
      1879 MEMB     16       PYPG     H5S      HAL2     0.900000E-01   1.00800           0   0.00000     -0.301140E-02
      1880 MEMB     16       PYPG     C26      CTL2    -0.180000       12.0110           0   0.00000     -0.301140E-02
      1881 MEMB     16       PYPG     H6R      HAL2     0.900000E-01   1.00800           0   0.00000     -0.301140E-02
      1882 MEMB     16       PYPG     H6S      HAL2     0.900000E-01   1.00800           0   0.00000     -0.301140E-02
      1883 MEMB     16       PYPG     C27      CTL2    -0.180000       12.0110           0   0.00000     -0.301140E-02
      1884 MEMB     16       PYPG     H7R      HAL2     0.900000E-01   1.00800           0   0.00000     -0.301140E-02
      1885 MEMB     16       PYPG     H7S      HAL2     0.900000E-01   1.00800           0   0.00000     -0.301140E-02
      1886 MEMB     16       PYPG     C28      CTL2    -0.180000       12.0110           0   0.00000     -0.301140E-02
      1887 MEMB     16       PYPG     H8R      HAL2     0.900000E-01   1.00800           0   0.00000     -0.301140E-02
      1888 MEMB     16       PYPG     H8S      HAL2     0.900000E-01   1.00800           0   0.00000     -0.301140E-02
      1889 MEMB     16       PYPG     C29      CEL1    -0.150000       12.0110           0   0.00000     -0.301140E-02
      1890 MEMB     16       PYPG     H9R      HEL1     0.150000       1.00800           0   0.00000     -0.301140E-02
      1891 MEMB     16       PYPG     C210     CEL1    -0.150000       12.0110           0   0.00000     -0.301140E-02
      1892 MEMB     16       PYPG     H10R     HEL1     0.150000       1.00800           0   0.00000     -0.301140E-02
      1893 MEMB     16       PYPG     C211     CTL2    -0.180000       12.0110           0   0.00000     -0.301140E-02
      1894 MEMB     16       PYPG     H11R     HAL2     0.900000E-01   1.00800           0   0.00000     -0.301140E-02
      1895 MEMB     16       PYPG     H11S     HAL2     0.900000E-01   1.00800           0   0.00000     -0.301140E-02
      1896 MEMB     16       PYPG     C212     CTL2    -0.180000       12.0110           0   0.00000     -0.301140E-02
      1897 MEMB     16       PYPG     H12R     HAL2     0.900000E-01   1.00800           0   0.00000     -0.301140E-02
      1898 MEMB     16       PYPG     H12S     HAL2     0.900000E-01   1.00800           0   0.00000     -0.301140E-02
      1899 MEMB     16       PYPG     C213     CTL2    -0.180000       12.0110           0   0.00000     -0.301140E-02
      1900 MEMB     16       PYPG     H13R     HAL2     0.900000E-01   1.00800           0   0.00000     -0.301140E-02
      1901 MEMB     16       PYPG     H13S     HAL2     0.900000E-01   1.00800           0   0.00000     -0.301140E-02
      1902 MEMB     16       PYPG     C214     CTL2    -0.180000       12.0110           0   0.00000     -0.301140E-02
      1903 MEMB     16       PYPG     H14R     HAL2     0.900000E-01   1.00800           0   0.00000     -0.301140E-02
      1904 MEMB     16       PYPG     H14S     HAL2     0.900000E-01   1.00800           0   0.00000     -0.301140E-02
      1905 MEMB     16       PYPG     C215     CTL2    -0.180000       12.0110           0   0.00000     -0.301140E-02
      1906 MEMB     16       PYPG     H15R     HAL2     0.900000E-01   1.00800           0   0.00000     -0.301140E-02
      1907 MEMB     16       PYPG     H15S     HAL2     0.900000E-01   1.00800           0   0.00000     -0.301140E-02
      1908 MEMB     16       PYPG     C216     CTL3    -0.270000       12.0110           0   0.00000     -0.301140E-02
      1909 MEMB     16       PYPG     H16R     HAL3     0.900000E-01   1.00800           0   0.00000     -0.301140E-02
      1910 MEMB     16       PYPG     H16S     HAL3     0.900000E-01   1.00800           0   0.00000     -0.301140E-02
      1911 MEMB     16       PYPG     H16T     HAL3     0.900000E-01   1.00800           0   0.00000     -0.301140E-02
      1912 MEMB     16       PYPG     C33      CTL2    -0.180000       12.0110           0   0.00000     -0.301140E-02
      1913 MEMB     16       PYPG     H3X      HAL2     0.900000E-01   1.00800           0   0.00000     -0.301140E-02
      1914 MEMB     16       PYPG     H3Y      HAL2     0.900000E-01   1.00800           0   0.00000     -0.301140E-02
      1915 MEMB     16       PYPG     C34      CTL2    -0.180000       12.0110           0   0.00000     -0.301140E-02
      1916 MEMB     16       PYPG     H4X      HAL2     0.900000E-01   1.00800           0   0.00000     -0.301140E-02
      1917 MEMB     16       PYPG     H4Y      HAL2     0.900000E-01   1.00800           0   0.00000     -0.301140E-02
      1918 MEMB     16       PYPG     C35      CTL2    -0.180000       12.0110           0   0.00000     -0.301140E-02
      1919 MEMB     16       PYPG     H5X      HAL2     0.900000E-01   1.00800           0   0.00000     -0.301140E-02
      1920 MEMB     16       PYPG     H5Y      HAL2     0.900000E-01   1.00800           0   0.00000     -0.301140E-02
      1921 MEMB     16       PYPG     C36      CTL2    -0.180000       12.0110           0   0.00000     -0.301140E-02
      1922 MEMB     16       PYPG     H6X      HAL2     0.900000E-01   1.00800           0   0.00000     -0.301140E-02
      1923 MEMB     16       PYPG     H6Y      HAL2     0.900000E-01   1.00800           0   0.00000     -0.301140E-02
      1924 MEMB     16       PYPG     C37      CTL2    -0.180000       12.0110           0   0.00000     -0.301140E-02
      1925 MEMB     16       PYPG     H7X      HAL2     0.900000E-01   1.00800           0   0.00000     -0.301140E-02
      1926 MEMB     16       PYPG     H7Y      HAL2     0.900000E-01   1.00800           0   0.00000     -0.301140E-02
      1927 MEMB     16       PYPG     C38      CTL2    -0.180000       12.0110           0   0.00000     -0.301140E-02
      1928 MEMB     16       PYPG     H8X      HAL2     0.900000E-01   1.00800           0   0.00000     -0.301140E-02
      1929 MEMB     16       PYPG     H8Y      HAL2     0.900000E-01   1.00800           0   0.00000     -0.301140E-02
      1930 MEMB     16       PYPG     C39      CTL2    -0.180000       12.0110           0   0.00000     -0.301140E-02
      1931 MEMB     16       PYPG     H9X      HAL2     0.900000E-01   1.00800           0   0.00000     -0.301140E-02
      1932 MEMB     16       PYPG     H9Y      HAL2     0.900000E-01   1.00800           0   0.00000     -0.301140E-02
      1933 MEMB     16       PYPG     C310     CTL2    -0.180000       12.0110           0   0.00000     -0.301140E-02
      1934 MEMB     16       PYPG     H10X     HAL2     0.900000E-01   1.00800           0   0.00000     -0.301140E-02
      1935 MEMB     16       PYPG     H10Y     HAL2     0.900000E-01   1.00800           0   0.00000     -0.301140E-02
      1936 MEMB     16       PYPG     C311     CTL2    -0.180000       12.0110           0   0.00000     -0.301140E-02
      1937 MEMB     16       PYPG     H11X     HAL2     0.900000E-01   1.00800           0   0.00000     -0.301140E-02
      1938 MEMB     16       PYPG     H11Y     HAL2     0.900000E-01   1.00800           0   0.00000     -0.301140E-02
      1939 MEMB     16       PYPG     C312     CTL2    -0.180000       12.0110           0   0.00000     -0.301140E-02
      1940 MEMB     16       PYPG     H12X     HAL2     0.900000E-01   1.00800           0   0.00000     -0.301140E-02
      1941 MEMB     16       PYPG     H12Y     HAL2     0.900000E-01   1.00800           0   0.00000     -0.301140E-02
      1942 MEMB     16       PYPG     C313     CTL2    -0.180000       12.0110           0   0.00000     -0.301140E-02
      1943 MEMB     16       PYPG     H13X     HAL2     0.900000E-01   1.00800           0   0.00000     -0.301140E-02
      1944 MEMB     16       PYPG     H13Y     HAL2     0.900000E-01   1.00800           0   0.00000     -0.301140E-02
      1945 MEMB     16       PYPG     C314     CTL2    -0.180000       12.0110           0   0.00000     -0.301140E-02
      1946 MEMB     16       PYPG     H14X     HAL2     0.900000E-01   1.00800           0   0.00000     -0.301140E-02
      1947 MEMB     16       PYPG     H14Y     HAL2     0.900000E-01   1.00800           0   0.00000     -0.301140E-02
      1948 MEMB     16       PYPG     C315     CTL2    -0.180000       12.0110           0   0.00000     -0.301140E-02
      1949 MEMB     16       PYPG     H15X     HAL2     0.900000E-01   1.00800           0   0.00000     -0.301140E-02
      1950 MEMB     16       PYPG     H15Y     HAL2     0.900000E-01   1.00800           0   0.00000     -0.301140E-02
      1951 MEMB     16       PYPG     C316     CTL3    -0.270000       12.0110           0   0.00000     -0.301140E-02
      1952 MEMB     16       PYPG     H16X     HAL3     0.900000E-01   1.00800           0   0.00000     -0.301140E-02
      1953 MEMB     16       PYPG     H16Y     HAL3     0.900000E-01   1.00800           0   0.00000     -0.301140E-02
      1954 MEMB     16       PYPG     H16Z     HAL3     0.900000E-01   1.00800           0   0.00000     -0.301140E-02
      1955 MEMB     17       PMPE     N        NH3L    -0.300000       14.0070           0   0.00000     -0.301140E-02
      1956 MEMB     17       PMPE     HN1      HCL      0.330000       1.00800           0   0.00000     -0.301140E-02
      1957 MEMB     17       PMPE     HN2      HCL      0.330000       1.00800           0   0.00000     -0.301140E-02
      1958 MEMB     17       PMPE     HN3      HCL      0.330000       1.00800           0   0.00000     -0.301140E-02
      1959 MEMB     17       PMPE     C12      CTL2     0.130000       12.0110           0   0.00000     -0.301140E-02
      1960 MEMB     17       PMPE     H12A     HAL2     0.900000E-01   1.00800           0   0.00000     -0.301140E-02
      1961 MEMB     17       PMPE     H12B     HAL2     0.900000E-01   1.00800           0   0.00000     -0.301140E-02
      1962 MEMB     17       PMPE     C11      CTL2    -0.800000E-01   12.0110           0   0.00000     -0.301140E-02
      1963 MEMB     17       PMPE     H11A     HAL2     0.900000E-01   1.00800           0   0.00000     -0.301140E-02
      1964 MEMB     17       PMPE     H11B     HAL2     0.900000E-01   1.00800           0   0.00000     -0.301140E-02
      1965 MEMB     17       PMPE     P        PL        1.50000       30.9740           0   0.00000     -0.301140E-02
      1966 MEMB     17       PMPE     O13      O2L     -0.780000       15.9994           0   0.00000     -0.301140E-02
      1967 MEMB     17       PMPE     O14      O2L     -0.780000       15.9994           0   0.00000     -0.301140E-02
      1968 MEMB     17       PMPE     O11      OSLP    -0.570000       15.9994           0   0.00000     -0.301140E-02
      1969 MEMB     17       PMPE     O12      OSLP    -0.570000       15.9994           0   0.00000     -0.301140E-02
      1970 MEMB     17       PMPE     C1       CTL2    -0.800000E-01   12.0110           0   0.00000     -0.301140E-02
      1971 MEMB     17       PMPE     HA       HAL2     0.900000E-01   1.00800           0   0.00000     -0.301140E-02
      1972 MEMB     17       PMPE     HB       HAL2     0.900000E-01   1.00800           0   0.00000     -0.301140E-02
      1973 MEMB     17       PMPE     C2       CTL1     0.170000       12.0110           0   0.00000     -0.301140E-02
      1974 MEMB     17       PMPE     HS       HAL1     0.900000E-01   1.00800           0   0.00000     -0.301140E-02
      1975 MEMB     17       PMPE     O21      OSL     -0.490000       15.9994           0   0.00000     -0.301140E-02
      1976 MEMB     17       PMPE     C21      CL       0.900000       12.0110           0   0.00000     -0.301140E-02
      1977 MEMB     17       PMPE     O22      OBL     -0.630000       15.9994           0   0.00000     -0.301140E-02
      1978 MEMB     17       PMPE     C22      CTL2    -0.220000       12.0110           0   0.00000     -0.301140E-02
      1979 MEMB     17       PMPE     H2R      HAL2     0.900000E-01   1.00800           0   0.00000     -0.301140E-02
      1980 MEMB     17       PMPE     H2S      HAL2     0.900000E-01   1.00800           0   0.00000     -0.301140E-02
      1981 MEMB     17       PMPE     C3       CTL2     0.800000E-01   12.0110           0   0.00000     -0.301140E-02
      1982 MEMB     17       PMPE     HX       HAL2     0.900000E-01   1.00800           0   0.00000     -0.301140E-02
      1983 MEMB     17       PMPE     HY       HAL2     0.900000E-01   1.00800           0   0.00000     -0.301140E-02
      1984 MEMB     17       PMPE     O31      OSL     -0.490000       15.9994           0   0.00000     -0.301140E-02
      1985 MEMB     17       PMPE     C31      CL       0.900000       12.0110           0   0.00000     -0.301140E-02
      1986 MEMB     17       PMPE     O32      OBL     -0.630000       15.9994           0   0.00000     -0.301140E-02
      1987 MEMB     17       PMPE     C32      CTL2    -0.220000       12.0110           0   0.00000     -0.301140E-02
      1988 MEMB     17       PMPE     H2X      HAL2     0.900000E-01   1.00800           0   0.00000     -0.301140E-02
      1989 MEMB     17       PMPE     H2Y      HAL2     0.900000E-01   1.00800           0   0.00000     -0.301140E-02
      1990 MEMB     17       PMPE     C23      CTL2    -0.180000       12.0110           0   0.00000     -0.301140E-02
      1991 MEMB     17       PMPE     H3R      HAL2     0.900000E-01   1.00800           0   0.00000     -0.301140E-02
      1992 MEMB     17       PMPE     H3S      HAL2     0.900000E-01   1.00800           0   0.00000     -0.301140E-02
      1993 MEMB     17       PMPE     C24      CTL2    -0.180000       12.0110           0   0.00000     -0.301140E-02
      1994 MEMB     17       PMPE     H4R      HAL2     0.900000E-01   1.00800           0   0.00000     -0.301140E-02
      1995 MEMB     17       PMPE     H4S      HAL2     0.900000E-01   1.00800           0   0.00000     -0.301140E-02
      1996 MEMB     17       PMPE     C25      CTL2    -0.180000       12.0110           0   0.00000     -0.301140E-02
      1997 MEMB     17       PMPE     H5R      HAL2     0.900000E-01   1.00800           0   0.00000     -0.301140E-02
      1998 MEMB     17       PMPE     H5S      HAL2     0.900000E-01   1.00800           0   0.00000     -0.301140E-02
      1999 MEMB     17       PMPE     C26      CTL2    -0.180000       12.0110           0   0.00000     -0.301140E-02
      2000 MEMB     17       PMPE     H6R      HAL2     0.900000E-01   1.00800           0   0.00000     -0.301140E-02
      2001 MEMB     17       PMPE     H6S      HAL2     0.900000E-01   1.00800           0   0.00000     -0.301140E-02
      2002 MEMB     17       PMPE     C27      CTL2    -0.180000       12.0110           0   0.00000     -0.301140E-02
      2003 MEMB     17       PMPE     H7R      HAL2     0.900000E-01   1.00800           0   0.00000     -0.301140E-02
      2004 MEMB     17       PMPE     H7S      HAL2     0.900000E-01   1.00800           0   0.00000     -0.301140E-02
      2005 MEMB     17       PMPE     C28      CTL2    -0.180000       12.0110           0   0.00000     -0.301140E-02
      2006 MEMB     17       PMPE     H8R      HAL2     0.900000E-01   1.00800           0   0.00000     -0.301140E-02
      2007 MEMB     17       PMPE     H8S      HAL2     0.900000E-01   1.00800           0   0.00000     -0.301140E-02
      2008 MEMB     17       PMPE     C29      CG3RC1  -0.900000E-01   12.0110           0   0.00000     -0.301140E-02
      2009 MEMB     17       PMPE     H9R      HGA1     0.900000E-01   1.00800           0   0.00000     -0.301140E-02
      2010 MEMB     17       PMPE     C217     CG3C31  -0.180000       12.0110           0   0.00000     -0.301140E-02
      2011 MEMB     17       PMPE     H17R     HGA2     0.900000E-01   1.00800           0   0.00000     -0.301140E-02
      2012 MEMB     17       PMPE     H17S     HGA2     0.900000E-01   1.00800           0   0.00000     -0.301140E-02
      2013 MEMB     17       PMPE     C210     CG3RC1  -0.900000E-01   12.0110           0   0.00000     -0.301140E-02
      2014 MEMB     17       PMPE     H10R     HGA1     0.900000E-01   1.00800           0   0.00000     -0.301140E-02
      2015 MEMB     17       PMPE     C211     CTL2    -0.180000       12.0110           0   0.00000     -0.301140E-02
      2016 MEMB     17       PMPE     H11R     HAL2     0.900000E-01   1.00800           0   0.00000     -0.301140E-02
      2017 MEMB     17       PMPE     H11S     HAL2     0.900000E-01   1.00800           0   0.00000     -0.301140E-02
      2018 MEMB     17       PMPE     C212     CTL2    -0.180000       12.0110           0   0.00000     -0.301140E-02
      2019 MEMB     17       PMPE     H12R     HAL2     0.900000E-01   1.00800           0   0.00000     -0.301140E-02
      2020 MEMB     17       PMPE     H12S     HAL2     0.900000E-01   1.00800           0   0.00000     -0.301140E-02
      2021 MEMB     17       PMPE     C213     CTL2    -0.180000       12.0110           0   0.00000     -0.301140E-02
      2022 MEMB     17       PMPE     H13R     HAL2     0.900000E-01   1.00800           0   0.00000     -0.301140E-02
      2023 MEMB     17       PMPE     H13S     HAL2     0.900000E-01   1.00800           0   0.00000     -0.301140E-02
      2024 MEMB     17       PMPE     C214     CTL2    -0.180000       12.0110           0   0.00000     -0.301140E-02
      2025 MEMB     17       PMPE     H14R     HAL2     0.900000E-01   1.00800           0   0.00000     -0.301140E-02
      2026 MEMB     17       PMPE     H14S     HAL2     0.900000E-01   1.00800           0   0.00000     -0.301140E-02
      2027 MEMB     17       PMPE     C215     CTL2    -0.180000       12.0110           0   0.00000     -0.301140E-02
      2028 MEMB     17       PMPE     H15R     HAL2     0.900000E-01   1.00800           0   0.00000     -0.301140E-02
      2029 MEMB     17       PMPE     H15S     HAL2     0.900000E-01   1.00800           0   0.00000     -0.301140E-02
      2030 MEMB     17       PMPE     C216     CTL3    -0.270000       12.0110           0   0.00000     -0.301140E-02
      2031 MEMB     17       PMPE     H16R     HAL3     0.900000E-01   1.00800           0   0.00000     -0.301140E-02
      2032 MEMB     17       PMPE     H16S     HAL3     0.900000E-01   1.00800           0   0.00000     -0.301140E-02
      2033 MEMB     17       PMPE     H16T     HAL3     0.900000E-01   1.00800           0   0.00000     -0.301140E-02
      2034 MEMB     17       PMPE     C33      CTL2    -0.180000       12.0110           0   0.00000     -0.301140E-02
      2035 MEMB     17       PMPE     H3X      HAL2     0.900000E-01   1.00800           0   0.00000     -0.301140E-02
      2036 MEMB     17       PMPE     H3Y      HAL2     0.900000E-01   1.00800           0   0.00000     -0.301140E-02
      2037 MEMB     17       PMPE     C34      CTL2    -0.180000       12.0110           0   0.00000     -0.301140E-02
      2038 MEMB     17       PMPE     H4X      HAL2     0.900000E-01   1.00800           0   0.00000     -0.301140E-02
      2039 MEMB     17       PMPE     H4Y      HAL2     0.900000E-01   1.00800           0   0.00000     -0.301140E-02
      2040 MEMB     17       PMPE     C35      CTL2    -0.180000       12.0110           0   0.00000     -0.301140E-02
      2041 MEMB     17       PMPE     H5X      HAL2     0.900000E-01   1.00800           0   0.00000     -0.301140E-02
      2042 MEMB     17       PMPE     H5Y      HAL2     0.900000E-01   1.00800           0   0.00000     -0.301140E-02
      2043 MEMB     17       PMPE     C36      CTL2    -0.180000       12.0110           0   0.00000     -0.301140E-02
      2044 MEMB     17       PMPE     H6X      HAL2     0.900000E-01   1.00800           0   0.00000     -0.301140E-02
      2045 MEMB     17       PMPE     H6Y      HAL2     0.900000E-01   1.00800           0   0.00000     -0.301140E-02
      2046 MEMB     17       PMPE     C37      CTL2    -0.180000       12.0110           0   0.00000     -0.301140E-02
      2047 MEMB     17       PMPE     H7X      HAL2     0.900000E-01   1.00800           0   0.00000     -0.301140E-02
      2048 MEMB     17       PMPE     H7Y      HAL2     0.900000E-01   1.00800           0   0.00000     -0.301140E-02
      2049 MEMB     17       PMPE     C38      CTL2    -0.180000       12.0110           0   0.00000     -0.301140E-02
      2050 MEMB     17       PMPE     H8X      HAL2     0.900000E-01   1.00800           0   0.00000     -0.301140E-02
      2051 MEMB     17       PMPE     H8Y      HAL2     0.900000E-01   1.00800           0   0.00000     -0.301140E-02
      2052 MEMB     17       PMPE     C39      CTL2    -0.180000       12.0110           0   0.00000     -0.301140E-02
      2053 MEMB     17       PMPE     H9X      HAL2     0.900000E-01   1.00800           0   0.00000     -0.301140E-02
      2054 MEMB     17       PMPE     H9Y      HAL2     0.900000E-01   1.00800           0   0.00000     -0.301140E-02
      2055 MEMB     17       PMPE     C310     CTL2    -0.180000       12.0110           0   0.00000     -0.301140E-02
      2056 MEMB     17       PMPE     H10X     HAL2     0.900000E-01   1.00800           0   0.00000     -0.301140E-02
      2057 MEMB     17       PMPE     H10Y     HAL2     0.900000E-01   1.00800           0   0.00000     -0.301140E-02
      2058 MEMB     17       PMPE     C311     CTL2    -0.180000       12.0110           0   0.00000     -0.301140E-02
      2059 MEMB     17       PMPE     H11X     HAL2     0.900000E-01   1.00800           0   0.00000     -0.301140E-02
      2060 MEMB     17       PMPE     H11Y     HAL2     0.900000E-01   1.00800           0   0.00000     -0.301140E-02
      2061 MEMB     17       PMPE     C312     CTL2    -0.180000       12.0110           0   0.00000     -0.301140E-02
      2062 MEMB     17       PMPE     H12X     HAL2     0.900000E-01   1.00800           0   0.00000     -0.301140E-02
      2063 MEMB     17       PMPE     H12Y     HAL2     0.900000E-01   1.00800           0   0.00000     -0.301140E-02
      2064 MEMB     17       PMPE     C313     CTL2    -0.180000       12.0110           0   0.00000     -0.301140E-02
      2065 MEMB     17       PMPE     H13X     HAL2     0.900000E-01   1.00800           0   0.00000     -0.301140E-02
      2066 MEMB     17       PMPE     H13Y     HAL2     0.900000E-01   1.00800           0   0.00000     -0.301140E-02
      2067 MEMB     17       PMPE     C314     CTL2    -0.180000       12.0110           0   0.00000     -0.301140E-02
      2068 MEMB     17       PMPE     H14X     HAL2     0.900000E-01   1.00800           0   0.00000     -0.301140E-02
      2069 MEMB     17       PMPE     H14Y     HAL2     0.900000E-01   1.00800           0   0.00000     -0.301140E-02
      2070 MEMB     17       PMPE     C315     CTL2    -0.180000       12.0110           0   0.00000     -0.301140E-02
      2071 MEMB     17       PMPE     H15X     HAL2     0.900000E-01   1.00800           0   0.00000     -0.301140E-02
      2072 MEMB     17       PMPE     H15Y     HAL2     0.900000E-01   1.00800           0   0.00000     -0.301140E-02
      2073 MEMB     17       PMPE     C316     CTL3    -0.270000       12.0110           0   0.00000     -0.301140E-02
      2074 MEMB     17       PMPE     H16X     HAL3     0.900000E-01   1.00800           0   0.00000     -0.301140E-02
      2075 MEMB     17       PMPE     H16Y     HAL3     0.900000E-01   1.00800           0   0.00000     -0.301140E-02
      2076 MEMB     17       PMPE     H16Z     HAL3     0.900000E-01   1.00800           0   0.00000     -0.301140E-02
      2077 MEMB     18       QMPE     N        NH3L    -0.300000       14.0070           0   0.00000     -0.301140E-02
      2078 MEMB     18       QMPE     HN1      HCL      0.330000       1.00800           0   0.00000     -0.301140E-02
      2079 MEMB     18       QMPE     HN2      HCL      0.330000       1.00800           0   0.00000     -0.301140E-02
      2080 MEMB     18       QMPE     HN3      HCL      0.330000       1.00800           0   0.00000     -0.301140E-02
      2081 MEMB     18       QMPE     C12      CTL2     0.130000       12.0110           0   0.00000     -0.301140E-02
      2082 MEMB     18       QMPE     H12A     HAL2     0.900000E-01   1.00800           0   0.00000     -0.301140E-02
      2083 MEMB     18       QMPE     H12B     HAL2     0.900000E-01   1.00800           0   0.00000     -0.301140E-02
      2084 MEMB     18       QMPE     C11      CTL2    -0.800000E-01   12.0110           0   0.00000     -0.301140E-02
      2085 MEMB     18       QMPE     H11A     HAL2     0.900000E-01   1.00800           0   0.00000     -0.301140E-02
      2086 MEMB     18       QMPE     H11B     HAL2     0.900000E-01   1.00800           0   0.00000     -0.301140E-02
      2087 MEMB     18       QMPE     P        PL        1.50000       30.9740           0   0.00000     -0.301140E-02
      2088 MEMB     18       QMPE     O13      O2L     -0.780000       15.9994           0   0.00000     -0.301140E-02
      2089 MEMB     18       QMPE     O14      O2L     -0.780000       15.9994           0   0.00000     -0.301140E-02
      2090 MEMB     18       QMPE     O11      OSLP    -0.570000       15.9994           0   0.00000     -0.301140E-02
      2091 MEMB     18       QMPE     O12      OSLP    -0.570000       15.9994           0   0.00000     -0.301140E-02
      2092 MEMB     18       QMPE     C1       CTL2    -0.800000E-01   12.0110           0   0.00000     -0.301140E-02
      2093 MEMB     18       QMPE     HA       HAL2     0.900000E-01   1.00800           0   0.00000     -0.301140E-02
      2094 MEMB     18       QMPE     HB       HAL2     0.900000E-01   1.00800           0   0.00000     -0.301140E-02
      2095 MEMB     18       QMPE     C2       CTL1     0.170000       12.0110           0   0.00000     -0.301140E-02
      2096 MEMB     18       QMPE     HS       HAL1     0.900000E-01   1.00800           0   0.00000     -0.301140E-02
      2097 MEMB     18       QMPE     O21      OSL     -0.490000       15.9994           0   0.00000     -0.301140E-02
      2098 MEMB     18       QMPE     C21      CL       0.900000       12.0110           0   0.00000     -0.301140E-02
      2099 MEMB     18       QMPE     O22      OBL     -0.630000       15.9994           0   0.00000     -0.301140E-02
      2100 MEMB     18       QMPE     C22      CTL2    -0.220000       12.0110           0   0.00000     -0.301140E-02
      2101 MEMB     18       QMPE     H2R      HAL2     0.900000E-01   1.00800           0   0.00000     -0.301140E-02
      2102 MEMB     18       QMPE     H2S      HAL2     0.900000E-01   1.00800           0   0.00000     -0.301140E-02
      2103 MEMB     18       QMPE     C3       CTL2     0.800000E-01   12.0110           0   0.00000     -0.301140E-02
      2104 MEMB     18       QMPE     HX       HAL2     0.900000E-01   1.00800           0   0.00000     -0.301140E-02
      2105 MEMB     18       QMPE     HY       HAL2     0.900000E-01   1.00800           0   0.00000     -0.301140E-02
      2106 MEMB     18       QMPE     O31      OSL     -0.490000       15.9994           0   0.00000     -0.301140E-02
      2107 MEMB     18       QMPE     C31      CL       0.900000       12.0110           0   0.00000     -0.301140E-02
      2108 MEMB     18       QMPE     O32      OBL     -0.630000       15.9994           0   0.00000     -0.301140E-02
      2109 MEMB     18       QMPE     C32      CTL2    -0.220000       12.0110           0   0.00000     -0.301140E-02
      2110 MEMB     18       QMPE     H2X      HAL2     0.900000E-01   1.00800           0   0.00000     -0.301140E-02
      2111 MEMB     18       QMPE     H2Y      HAL2     0.900000E-01   1.00800           0   0.00000     -0.301140E-02
      2112 MEMB     18       QMPE     C23      CTL2    -0.180000       12.0110           0   0.00000     -0.301140E-02
      2113 MEMB     18       QMPE     H3R      HAL2     0.900000E-01   1.00800           0   0.00000     -0.301140E-02
      2114 MEMB     18       QMPE     H3S      HAL2     0.900000E-01   1.00800           0   0.00000     -0.301140E-02
      2115 MEMB     18       QMPE     C24      CTL2    -0.180000       12.0110           0   0.00000     -0.301140E-02
      2116 MEMB     18       QMPE     H4R      HAL2     0.900000E-01   1.00800           0   0.00000     -0.301140E-02
      2117 MEMB     18       QMPE     H4S      HAL2     0.900000E-01   1.00800           0   0.00000     -0.301140E-02
      2118 MEMB     18       QMPE     C25      CTL2    -0.180000       12.0110           0   0.00000     -0.301140E-02
      2119 MEMB     18       QMPE     H5R      HAL2     0.900000E-01   1.00800           0   0.00000     -0.301140E-02
      2120 MEMB     18       QMPE     H5S      HAL2     0.900000E-01   1.00800           0   0.00000     -0.301140E-02
      2121 MEMB     18       QMPE     C26      CTL2    -0.180000       12.0110           0   0.00000     -0.301140E-02
      2122 MEMB     18       QMPE     H6R      HAL2     0.900000E-01   1.00800           0   0.00000     -0.301140E-02
      2123 MEMB     18       QMPE     H6S      HAL2     0.900000E-01   1.00800           0   0.00000     -0.301140E-02
      2124 MEMB     18       QMPE     C27      CTL2    -0.180000       12.0110           0   0.00000     -0.301140E-02
      2125 MEMB     18       QMPE     H7R      HAL2     0.900000E-01   1.00800           0   0.00000     -0.301140E-02
      2126 MEMB     18       QMPE     H7S      HAL2     0.900000E-01   1.00800           0   0.00000     -0.301140E-02
      2127 MEMB     18       QMPE     C28      CTL2    -0.180000       12.0110           0   0.00000     -0.301140E-02
      2128 MEMB     18       QMPE     H8R      HAL2     0.900000E-01   1.00800           0   0.00000     -0.301140E-02
      2129 MEMB     18       QMPE     H8S      HAL2     0.900000E-01   1.00800           0   0.00000     -0.301140E-02
      2130 MEMB     18       QMPE     C29      CG3RC1  -0.900000E-01   12.0110           0   0.00000     -0.301140E-02
      2131 MEMB     18       QMPE     H9R      HGA1     0.900000E-01   1.00800           0   0.00000     -0.301140E-02
      2132 MEMB     18       QMPE     C217     CG3C31  -0.180000       12.0110           0   0.00000     -0.301140E-02
      2133 MEMB     18       QMPE     H17R     HGA2     0.900000E-01   1.00800           0   0.00000     -0.301140E-02
      2134 MEMB     18       QMPE     H17S     HGA2     0.900000E-01   1.00800           0   0.00000     -0.301140E-02
      2135 MEMB     18       QMPE     C210     CG3RC1  -0.900000E-01   12.0110           0   0.00000     -0.301140E-02
      2136 MEMB     18       QMPE     H10R     HGA1     0.900000E-01   1.00800           0   0.00000     -0.301140E-02
      2137 MEMB     18       QMPE     C211     CTL2    -0.180000       12.0110           0   0.00000     -0.301140E-02
      2138 MEMB     18       QMPE     H11R     HAL2     0.900000E-01   1.00800           0   0.00000     -0.301140E-02
      2139 MEMB     18       QMPE     H11S     HAL2     0.900000E-01   1.00800           0   0.00000     -0.301140E-02
      2140 MEMB     18       QMPE     C212     CTL2    -0.180000       12.0110           0   0.00000     -0.301140E-02
      2141 MEMB     18       QMPE     H12R     HAL2     0.900000E-01   1.00800           0   0.00000     -0.301140E-02
      2142 MEMB     18       QMPE     H12S     HAL2     0.900000E-01   1.00800           0   0.00000     -0.301140E-02
      2143 MEMB     18       QMPE     C213     CTL2    -0.180000       12.0110           0   0.00000     -0.301140E-02
      2144 MEMB     18       QMPE     H13R     HAL2     0.900000E-01   1.00800           0   0.00000     -0.301140E-02
      2145 MEMB     18       QMPE     H13S     HAL2     0.900000E-01   1.00800           0   0.00000     -0.301140E-02
      2146 MEMB     18       QMPE     C214     CTL2    -0.180000       12.0110           0   0.00000     -0.301140E-02
      2147 MEMB     18       QMPE     H14R     HAL2     0.900000E-01   1.00800           0   0.00000     -0.301140E-02
      2148 MEMB     18       QMPE     H14S     HAL2     0.900000E-01   1.00800           0   0.00000     -0.301140E-02
      2149 MEMB     18       QMPE     C215     CTL2    -0.180000       12.0110           0   0.00000     -0.301140E-02
      2150 MEMB     18       QMPE     H15R     HAL2     0.900000E-01   1.00800           0   0.00000     -0.301140E-02
      2151 MEMB     18       QMPE     H15S     HAL2     0.900000E-01   1.00800           0   0.00000     -0.301140E-02
      2152 MEMB     18       QMPE     C216     CTL3    -0.270000       12.0110           0   0.00000     -0.301140E-02
      2153 MEMB     18       QMPE     H16R     HAL3     0.900000E-01   1.00800           0   0.00000     -0.301140E-02
      2154 MEMB     18       QMPE     H16S     HAL3     0.900000E-01   1.00800           0   0.00000     -0.301140E-02
      2155 MEMB     18       QMPE     H16T     HAL3     0.900000E-01   1.00800           0   0.00000     -0.301140E-02
      2156 MEMB     18       QMPE     C33      CTL2    -0.180000       12.0110           0   0.00000     -0.301140E-02
      2157 MEMB     18       QMPE     H3X      HAL2     0.900000E-01   1.00800           0   0.00000     -0.301140E-02
      2158 MEMB     18       QMPE     H3Y      HAL2     0.900000E-01   1.00800           0   0.00000     -0.301140E-02
      2159 MEMB     18       QMPE     C34      CTL2    -0.180000       12.0110           0   0.00000     -0.301140E-02
      2160 MEMB     18       QMPE     H4X      HAL2     0.900000E-01   1.00800           0   0.00000     -0.301140E-02
      2161 MEMB     18       QMPE     H4Y      HAL2     0.900000E-01   1.00800           0   0.00000     -0.301140E-02
      2162 MEMB     18       QMPE     C35      CTL2    -0.180000       12.0110           0   0.00000     -0.301140E-02
      2163 MEMB     18       QMPE     H5X      HAL2     0.900000E-01   1.00800           0   0.00000     -0.301140E-02
      2164 MEMB     18       QMPE     H5Y      HAL2     0.900000E-01   1.00800           0   0.00000     -0.301140E-02
      2165 MEMB     18       QMPE     C36      CTL2    -0.180000       12.0110           0   0.00000     -0.301140E-02
      2166 MEMB     18       QMPE     H6X      HAL2     0.900000E-01   1.00800           0   0.00000     -0.301140E-02
      2167 MEMB     18       QMPE     H6Y      HAL2     0.900000E-01   1.00800           0   0.00000     -0.301140E-02
      2168 MEMB     18       QMPE     C37      CTL2    -0.180000       12.0110           0   0.00000     -0.301140E-02
      2169 MEMB     18       QMPE     H7X      HAL2     0.900000E-01   1.00800           0   0.00000     -0.301140E-02
      2170 MEMB     18       QMPE     H7Y      HAL2     0.900000E-01   1.00800           0   0.00000     -0.301140E-02
      2171 MEMB     18       QMPE     C38      CTL2    -0.180000       12.0110           0   0.00000     -0.301140E-02
      2172 MEMB     18       QMPE     H8X      HAL2     0.900000E-01   1.00800           0   0.00000     -0.301140E-02
      2173 MEMB     18       QMPE     H8Y      HAL2     0.900000E-01   1.00800           0   0.00000     -0.301140E-02
      2174 MEMB     18       QMPE     C39      CTL2    -0.180000       12.0110           0   0.00000     -0.301140E-02
      2175 MEMB     18       QMPE     H9X      HAL2     0.900000E-01   1.00800           0   0.00000     -0.301140E-02
      2176 MEMB     18       QMPE     H9Y      HAL2     0.900000E-01   1.00800           0   0.00000     -0.301140E-02
      2177 MEMB     18       QMPE     C310     CTL2    -0.180000       12.0110           0   0.00000     -0.301140E-02
      2178 MEMB     18       QMPE     H10X     HAL2     0.900000E-01   1.00800           0   0.00000     -0.301140E-02
      2179 MEMB     18       QMPE     H10Y     HAL2     0.900000E-01   1.00800           0   0.00000     -0.301140E-02
      2180 MEMB     18       QMPE     C311     CTL2    -0.180000       12.0110           0   0.00000     -0.301140E-02
      2181 MEMB     18       QMPE     H11X     HAL2     0.900000E-01   1.00800           0   0.00000     -0.301140E-02
      2182 MEMB     18       QMPE     H11Y     HAL2     0.900000E-01   1.00800           0   0.00000     -0.301140E-02
      2183 MEMB     18       QMPE     C312     CTL2    -0.180000       12.0110           0   0.00000     -0.301140E-02
      2184 MEMB     18       QMPE     H12X     HAL2     0.900000E-01   1.00800           0   0.00000     -0.301140E-02
      2185 MEMB     18       QMPE     H12Y     HAL2     0.900000E-01   1.00800           0   0.00000     -0.301140E-02
      2186 MEMB     18       QMPE     C313     CTL2    -0.180000       12.0110           0   0.00000     -0.301140E-02
      2187 MEMB     18       QMPE     H13X     HAL2     0.900000E-01   1.00800           0   0.00000     -0.301140E-02
      2188 MEMB     18       QMPE     H13Y     HAL2     0.900000E-01   1.00800           0   0.00000     -0.301140E-02
      2189 MEMB     18       QMPE     C314     CTL2    -0.180000       12.0110           0   0.00000     -0.301140E-02
      2190 MEMB     18       QMPE     H14X     HAL2     0.900000E-01   1.00800           0   0.00000     -0.301140E-02
      2191 MEMB     18       QMPE     H14Y     HAL2     0.900000E-01   1.00800           0   0.00000     -0.301140E-02
      2192 MEMB     18       QMPE     C315     CTL3    -0.270000       12.0110           0   0.00000     -0.301140E-02
      2193 MEMB     18       QMPE     H15X     HAL3     0.900000E-01   1.00800           0   0.00000     -0.301140E-02
      2194 MEMB     18       QMPE     H15Y     HAL3     0.900000E-01   1.00800           0   0.00000     -0.301140E-02
      2195 MEMB     18       QMPE     H15Z     HAL3     0.900000E-01   1.00800           0   0.00000     -0.301140E-02
      2196 MEMB     19       OYPE     N        NH3L    -0.300000       14.0070           0   0.00000     -0.301140E-02
      2197 MEMB     19       OYPE     HN1      HCL      0.330000       1.00800           0   0.00000     -0.301140E-02
      2198 MEMB     19       OYPE     HN2      HCL      0.330000       1.00800           0   0.00000     -0.301140E-02
      2199 MEMB     19       OYPE     HN3      HCL      0.330000       1.00800           0   0.00000     -0.301140E-02
      2200 MEMB     19       OYPE     C12      CTL2     0.130000       12.0110           0   0.00000     -0.301140E-02
      2201 MEMB     19       OYPE     H12A     HAL2     0.900000E-01   1.00800           0   0.00000     -0.301140E-02
      2202 MEMB     19       OYPE     H12B     HAL2     0.900000E-01   1.00800           0   0.00000     -0.301140E-02
      2203 MEMB     19       OYPE     C11      CTL2    -0.800000E-01   12.0110           0   0.00000     -0.301140E-02
      2204 MEMB     19       OYPE     H11A     HAL2     0.900000E-01   1.00800           0   0.00000     -0.301140E-02
      2205 MEMB     19       OYPE     H11B     HAL2     0.900000E-01   1.00800           0   0.00000     -0.301140E-02
      2206 MEMB     19       OYPE     P        PL        1.50000       30.9740           0   0.00000     -0.301140E-02
      2207 MEMB     19       OYPE     O13      O2L     -0.780000       15.9994           0   0.00000     -0.301140E-02
      2208 MEMB     19       OYPE     O14      O2L     -0.780000       15.9994           0   0.00000     -0.301140E-02
      2209 MEMB     19       OYPE     O11      OSLP    -0.570000       15.9994           0   0.00000     -0.301140E-02
      2210 MEMB     19       OYPE     O12      OSLP    -0.570000       15.9994           0   0.00000     -0.301140E-02
      2211 MEMB     19       OYPE     C1       CTL2    -0.800000E-01   12.0110           0   0.00000     -0.301140E-02
      2212 MEMB     19       OYPE     HA       HAL2     0.900000E-01   1.00800           0   0.00000     -0.301140E-02
      2213 MEMB     19       OYPE     HB       HAL2     0.900000E-01   1.00800           0   0.00000     -0.301140E-02
      2214 MEMB     19       OYPE     C2       CTL1     0.170000       12.0110           0   0.00000     -0.301140E-02
      2215 MEMB     19       OYPE     HS       HAL1     0.900000E-01   1.00800           0   0.00000     -0.301140E-02
      2216 MEMB     19       OYPE     O21      OSL     -0.490000       15.9994           0   0.00000     -0.301140E-02
      2217 MEMB     19       OYPE     C21      CL       0.900000       12.0110           0   0.00000     -0.301140E-02
      2218 MEMB     19       OYPE     O22      OBL     -0.630000       15.9994           0   0.00000     -0.301140E-02
      2219 MEMB     19       OYPE     C22      CTL2    -0.220000       12.0110           0   0.00000     -0.301140E-02
      2220 MEMB     19       OYPE     H2R      HAL2     0.900000E-01   1.00800           0   0.00000     -0.301140E-02
      2221 MEMB     19       OYPE     H2S      HAL2     0.900000E-01   1.00800           0   0.00000     -0.301140E-02
      2222 MEMB     19       OYPE     C3       CTL2     0.800000E-01   12.0110           0   0.00000     -0.301140E-02
      2223 MEMB     19       OYPE     HX       HAL2     0.900000E-01   1.00800           0   0.00000     -0.301140E-02
      2224 MEMB     19       OYPE     HY       HAL2     0.900000E-01   1.00800           0   0.00000     -0.301140E-02
      2225 MEMB     19       OYPE     O31      OSL     -0.490000       15.9994           0   0.00000     -0.301140E-02
      2226 MEMB     19       OYPE     C31      CL       0.900000       12.0110           0   0.00000     -0.301140E-02
      2227 MEMB     19       OYPE     O32      OBL     -0.630000       15.9994           0   0.00000     -0.301140E-02
      2228 MEMB     19       OYPE     C32      CTL2    -0.220000       12.0110           0   0.00000     -0.301140E-02
      2229 MEMB     19       OYPE     H2X      HAL2     0.900000E-01   1.00800           0   0.00000     -0.301140E-02
      2230 MEMB     19       OYPE     H2Y      HAL2     0.900000E-01   1.00800           0   0.00000     -0.301140E-02
      2231 MEMB     19       OYPE     C23      CTL2    -0.180000       12.0110           0   0.00000     -0.301140E-02
      2232 MEMB     19       OYPE     H3R      HAL2     0.900000E-01   1.00800           0   0.00000     -0.301140E-02
      2233 MEMB     19       OYPE     H3S      HAL2     0.900000E-01   1.00800           0   0.00000     -0.301140E-02
      2234 MEMB     19       OYPE     C24      CTL2    -0.180000       12.0110           0   0.00000     -0.301140E-02
      2235 MEMB     19       OYPE     H4R      HAL2     0.900000E-01   1.00800           0   0.00000     -0.301140E-02
      2236 MEMB     19       OYPE     H4S      HAL2     0.900000E-01   1.00800           0   0.00000     -0.301140E-02
      2237 MEMB     19       OYPE     C25      CTL2    -0.180000       12.0110           0   0.00000     -0.301140E-02
      2238 MEMB     19       OYPE     H5R      HAL2     0.900000E-01   1.00800           0   0.00000     -0.301140E-02
      2239 MEMB     19       OYPE     H5S      HAL2     0.900000E-01   1.00800           0   0.00000     -0.301140E-02
      2240 MEMB     19       OYPE     C26      CTL2    -0.180000       12.0110           0   0.00000     -0.301140E-02
      2241 MEMB     19       OYPE     H6R      HAL2     0.900000E-01   1.00800           0   0.00000     -0.301140E-02
      2242 MEMB     19       OYPE     H6S      HAL2     0.900000E-01   1.00800           0   0.00000     -0.301140E-02
      2243 MEMB     19       OYPE     C27      CTL2    -0.180000       12.0110           0   0.00000     -0.301140E-02
      2244 MEMB     19       OYPE     H7R      HAL2     0.900000E-01   1.00800           0   0.00000     -0.301140E-02
      2245 MEMB     19       OYPE     H7S      HAL2     0.900000E-01   1.00800           0   0.00000     -0.301140E-02
      2246 MEMB     19       OYPE     C28      CTL2    -0.180000       12.0110           0   0.00000     -0.301140E-02
      2247 MEMB     19       OYPE     H8R      HAL2     0.900000E-01   1.00800           0   0.00000     -0.301140E-02
      2248 MEMB     19       OYPE     H8S      HAL2     0.900000E-01   1.00800           0   0.00000     -0.301140E-02
      2249 MEMB     19       OYPE     C29      CEL1    -0.150000       12.0110           0   0.00000     -0.301140E-02
      2250 MEMB     19       OYPE     H9R      HEL1     0.150000       1.00800           0   0.00000     -0.301140E-02
      2251 MEMB     19       OYPE     C210     CEL1    -0.150000       12.0110           0   0.00000     -0.301140E-02
      2252 MEMB     19       OYPE     H10R     HEL1     0.150000       1.00800           0   0.00000     -0.301140E-02
      2253 MEMB     19       OYPE     C211     CTL2    -0.180000       12.0110           0   0.00000     -0.301140E-02
      2254 MEMB     19       OYPE     H11R     HAL2     0.900000E-01   1.00800           0   0.00000     -0.301140E-02
      2255 MEMB     19       OYPE     H11S     HAL2     0.900000E-01   1.00800           0   0.00000     -0.301140E-02
      2256 MEMB     19       OYPE     C212     CTL2    -0.180000       12.0110           0   0.00000     -0.301140E-02
      2257 MEMB     19       OYPE     H12R     HAL2     0.900000E-01   1.00800           0   0.00000     -0.301140E-02
      2258 MEMB     19       OYPE     H12S     HAL2     0.900000E-01   1.00800           0   0.00000     -0.301140E-02
      2259 MEMB     19       OYPE     C213     CTL2    -0.180000       12.0110           0   0.00000     -0.301140E-02
      2260 MEMB     19       OYPE     H13R     HAL2     0.900000E-01   1.00800           0   0.00000     -0.301140E-02
      2261 MEMB     19       OYPE     H13S     HAL2     0.900000E-01   1.00800           0   0.00000     -0.301140E-02
      2262 MEMB     19       OYPE     C214     CTL2    -0.180000       12.0110           0   0.00000     -0.301140E-02
      2263 MEMB     19       OYPE     H14R     HAL2     0.900000E-01   1.00800           0   0.00000     -0.301140E-02
      2264 MEMB     19       OYPE     H14S     HAL2     0.900000E-01   1.00800           0   0.00000     -0.301140E-02
      2265 MEMB     19       OYPE     C215     CTL2    -0.180000       12.0110           0   0.00000     -0.301140E-02
      2266 MEMB     19       OYPE     H15R     HAL2     0.900000E-01   1.00800           0   0.00000     -0.301140E-02
      2267 MEMB     19       OYPE     H15S     HAL2     0.900000E-01   1.00800           0   0.00000     -0.301140E-02
      2268 MEMB     19       OYPE     C216     CTL3    -0.270000       12.0110           0   0.00000     -0.301140E-02
      2269 MEMB     19       OYPE     H16R     HAL3     0.900000E-01   1.00800           0   0.00000     -0.301140E-02
      2270 MEMB     19       OYPE     H16S     HAL3     0.900000E-01   1.00800           0   0.00000     -0.301140E-02
      2271 MEMB     19       OYPE     H16T     HAL3     0.900000E-01   1.00800           0   0.00000     -0.301140E-02
      2272 MEMB     19       OYPE     C33      CTL2    -0.180000       12.0110           0   0.00000     -0.301140E-02
      2273 MEMB     19       OYPE     H3X      HAL2     0.900000E-01   1.00800           0   0.00000     -0.301140E-02
      2274 MEMB     19       OYPE     H3Y      HAL2     0.900000E-01   1.00800           0   0.00000     -0.301140E-02
      2275 MEMB     19       OYPE     C34      CTL2    -0.180000       12.0110           0   0.00000     -0.301140E-02
      2276 MEMB     19       OYPE     H4X      HAL2     0.900000E-01   1.00800           0   0.00000     -0.301140E-02
      2277 MEMB     19       OYPE     H4Y      HAL2     0.900000E-01   1.00800           0   0.00000     -0.301140E-02
      2278 MEMB     19       OYPE     C35      CTL2    -0.180000       12.0110           0   0.00000     -0.301140E-02
      2279 MEMB     19       OYPE     H5X      HAL2     0.900000E-01   1.00800           0   0.00000     -0.301140E-02
      2280 MEMB     19       OYPE     H5Y      HAL2     0.900000E-01   1.00800           0   0.00000     -0.301140E-02
      2281 MEMB     19       OYPE     C36      CTL2    -0.180000       12.0110           0   0.00000     -0.301140E-02
      2282 MEMB     19       OYPE     H6X      HAL2     0.900000E-01   1.00800           0   0.00000     -0.301140E-02
      2283 MEMB     19       OYPE     H6Y      HAL2     0.900000E-01   1.00800           0   0.00000     -0.301140E-02
      2284 MEMB     19       OYPE     C37      CTL2    -0.180000       12.0110           0   0.00000     -0.301140E-02
      2285 MEMB     19       OYPE     H7X      HAL2     0.900000E-01   1.00800           0   0.00000     -0.301140E-02
      2286 MEMB     19       OYPE     H7Y      HAL2     0.900000E-01   1.00800           0   0.00000     -0.301140E-02
      2287 MEMB     19       OYPE     C38      CTL2    -0.180000       12.0110           0   0.00000     -0.301140E-02
      2288 MEMB     19       OYPE     H8X      HAL2     0.900000E-01   1.00800           0   0.00000     -0.301140E-02
      2289 MEMB     19       OYPE     H8Y      HAL2     0.900000E-01   1.00800           0   0.00000     -0.301140E-02
      2290 MEMB     19       OYPE     C39      CEL1    -0.150000       12.0110           0   0.00000     -0.301140E-02
      2291 MEMB     19       OYPE     H9X      HEL1     0.150000       1.00800           0   0.00000     -0.301140E-02
      2292 MEMB     19       OYPE     C310     CEL1    -0.150000       12.0110           0   0.00000     -0.301140E-02
      2293 MEMB     19       OYPE     H10X     HEL1     0.150000       1.00800           0   0.00000     -0.301140E-02
      2294 MEMB     19       OYPE     C311     CTL2    -0.180000       12.0110           0   0.00000     -0.301140E-02
      2295 MEMB     19       OYPE     H11X     HAL2     0.900000E-01   1.00800           0   0.00000     -0.301140E-02
      2296 MEMB     19       OYPE     H11Y     HAL2     0.900000E-01   1.00800           0   0.00000     -0.301140E-02
      2297 MEMB     19       OYPE     C312     CTL2    -0.180000       12.0110           0   0.00000     -0.301140E-02
      2298 MEMB     19       OYPE     H12X     HAL2     0.900000E-01   1.00800           0   0.00000     -0.301140E-02
      2299 MEMB     19       OYPE     H12Y     HAL2     0.900000E-01   1.00800           0   0.00000     -0.301140E-02
      2300 MEMB     19       OYPE     C313     CTL2    -0.180000       12.0110           0   0.00000     -0.301140E-02
      2301 MEMB     19       OYPE     H13X     HAL2     0.900000E-01   1.00800           0   0.00000     -0.301140E-02
      2302 MEMB     19       OYPE     H13Y     HAL2     0.900000E-01   1.00800           0   0.00000     -0.301140E-02
      2303 MEMB     19       OYPE     C314     CTL2    -0.180000       12.0110           0   0.00000     -0.301140E-02
      2304 MEMB     19       OYPE     H14X     HAL2     0.900000E-01   1.00800           0   0.00000     -0.301140E-02
      2305 MEMB     19       OYPE     H14Y     HAL2     0.900000E-01   1.00800           0   0.00000     -0.301140E-02
      2306 MEMB     19       OYPE     C315     CTL2    -0.180000       12.0110           0   0.00000     -0.301140E-02
      2307 MEMB     19       OYPE     H15X     HAL2     0.900000E-01   1.00800           0   0.00000     -0.301140E-02
      2308 MEMB     19       OYPE     H15Y     HAL2     0.900000E-01   1.00800           0   0.00000     -0.301140E-02
      2309 MEMB     19       OYPE     C316     CTL2    -0.180000       12.0110           0   0.00000     -0.301140E-02
      2310 MEMB     19       OYPE     H16X     HAL2     0.900000E-01   1.00800           0   0.00000     -0.301140E-02
      2311 MEMB     19       OYPE     H16Y     HAL2     0.900000E-01   1.00800           0   0.00000     -0.301140E-02
      2312 MEMB     19       OYPE     C317     CTL2    -0.180000       12.0110           0   0.00000     -0.301140E-02
      2313 MEMB     19       OYPE     H17X     HAL2     0.900000E-01   1.00800           0   0.00000     -0.301140E-02
      2314 MEMB     19       OYPE     H17Y     HAL2     0.900000E-01   1.00800           0   0.00000     -0.301140E-02
      2315 MEMB     19       OYPE     C318     CTL3    -0.270000       12.0110           0   0.00000     -0.301140E-02
      2316 MEMB     19       OYPE     H18X     HAL3     0.900000E-01   1.00800           0   0.00000     -0.301140E-02
      2317 MEMB     19       OYPE     H18Y     HAL3     0.900000E-01   1.00800           0   0.00000     -0.301140E-02
      2318 MEMB     19       OYPE     H18Z     HAL3     0.900000E-01   1.00800           0   0.00000     -0.301140E-02
      2319 MEMB     20       POPE     N        NH3L    -0.300000       14.0070           0   0.00000     -0.301140E-02
      2320 MEMB     20       POPE     HN1      HCL      0.330000       1.00800           0   0.00000     -0.301140E-02
      2321 MEMB     20       POPE     HN2      HCL      0.330000       1.00800           0   0.00000     -0.301140E-02
      2322 MEMB     20       POPE     HN3      HCL      0.330000       1.00800           0   0.00000     -0.301140E-02
      2323 MEMB     20       POPE     C12      CTL2     0.130000       12.0110           0   0.00000     -0.301140E-02
      2324 MEMB     20       POPE     H12A     HAL2     0.900000E-01   1.00800           0   0.00000     -0.301140E-02
      2325 MEMB     20       POPE     H12B     HAL2     0.900000E-01   1.00800           0   0.00000     -0.301140E-02
      2326 MEMB     20       POPE     C11      CTL2    -0.800000E-01   12.0110           0   0.00000     -0.301140E-02
      2327 MEMB     20       POPE     H11A     HAL2     0.900000E-01   1.00800           0   0.00000     -0.301140E-02
      2328 MEMB     20       POPE     H11B     HAL2     0.900000E-01   1.00800           0   0.00000     -0.301140E-02
      2329 MEMB     20       POPE     P        PL        1.50000       30.9740           0   0.00000     -0.301140E-02
      2330 MEMB     20       POPE     O13      O2L     -0.780000       15.9994           0   0.00000     -0.301140E-02
      2331 MEMB     20       POPE     O14      O2L     -0.780000       15.9994           0   0.00000     -0.301140E-02
      2332 MEMB     20       POPE     O11      OSLP    -0.570000       15.9994           0   0.00000     -0.301140E-02
      2333 MEMB     20       POPE     O12      OSLP    -0.570000       15.9994           0   0.00000     -0.301140E-02
      2334 MEMB     20       POPE     C1       CTL2    -0.800000E-01   12.0110           0   0.00000     -0.301140E-02
      2335 MEMB     20       POPE     HA       HAL2     0.900000E-01   1.00800           0   0.00000     -0.301140E-02
      2336 MEMB     20       POPE     HB       HAL2     0.900000E-01   1.00800           0   0.00000     -0.301140E-02
      2337 MEMB     20       POPE     C2       CTL1     0.170000       12.0110           0   0.00000     -0.301140E-02
      2338 MEMB     20       POPE     HS       HAL1     0.900000E-01   1.00800           0   0.00000     -0.301140E-02
      2339 MEMB     20       POPE     O21      OSL     -0.490000       15.9994           0   0.00000     -0.301140E-02
      2340 MEMB     20       POPE     C21      CL       0.900000       12.0110           0   0.00000     -0.301140E-02
      2341 MEMB     20       POPE     O22      OBL     -0.630000       15.9994           0   0.00000     -0.301140E-02
      2342 MEMB     20       POPE     C22      CTL2    -0.220000       12.0110           0   0.00000     -0.301140E-02
      2343 MEMB     20       POPE     H2R      HAL2     0.900000E-01   1.00800           0   0.00000     -0.301140E-02
      2344 MEMB     20       POPE     H2S      HAL2     0.900000E-01   1.00800           0   0.00000     -0.301140E-02
      2345 MEMB     20       POPE     C3       CTL2     0.800000E-01   12.0110           0   0.00000     -0.301140E-02
      2346 MEMB     20       POPE     HX       HAL2     0.900000E-01   1.00800           0   0.00000     -0.301140E-02
      2347 MEMB     20       POPE     HY       HAL2     0.900000E-01   1.00800           0   0.00000     -0.301140E-02
      2348 MEMB     20       POPE     O31      OSL     -0.490000       15.9994           0   0.00000     -0.301140E-02
      2349 MEMB     20       POPE     C31      CL       0.900000       12.0110           0   0.00000     -0.301140E-02
      2350 MEMB     20       POPE     O32      OBL     -0.630000       15.9994           0   0.00000     -0.301140E-02
      2351 MEMB     20       POPE     C32      CTL2    -0.220000       12.0110           0   0.00000     -0.301140E-02
      2352 MEMB     20       POPE     H2X      HAL2     0.900000E-01   1.00800           0   0.00000     -0.301140E-02
      2353 MEMB     20       POPE     H2Y      HAL2     0.900000E-01   1.00800           0   0.00000     -0.301140E-02
      2354 MEMB     20       POPE     C23      CTL2    -0.180000       12.0110           0   0.00000     -0.301140E-02
      2355 MEMB     20       POPE     H3R      HAL2     0.900000E-01   1.00800           0   0.00000     -0.301140E-02
      2356 MEMB     20       POPE     H3S      HAL2     0.900000E-01   1.00800           0   0.00000     -0.301140E-02
      2357 MEMB     20       POPE     C24      CTL2    -0.180000       12.0110           0   0.00000     -0.301140E-02
      2358 MEMB     20       POPE     H4R      HAL2     0.900000E-01   1.00800           0   0.00000     -0.301140E-02
      2359 MEMB     20       POPE     H4S      HAL2     0.900000E-01   1.00800           0   0.00000     -0.301140E-02
      2360 MEMB     20       POPE     C25      CTL2    -0.180000       12.0110           0   0.00000     -0.301140E-02
      2361 MEMB     20       POPE     H5R      HAL2     0.900000E-01   1.00800           0   0.00000     -0.301140E-02
      2362 MEMB     20       POPE     H5S      HAL2     0.900000E-01   1.00800           0   0.00000     -0.301140E-02
      2363 MEMB     20       POPE     C26      CTL2    -0.180000       12.0110           0   0.00000     -0.301140E-02
      2364 MEMB     20       POPE     H6R      HAL2     0.900000E-01   1.00800           0   0.00000     -0.301140E-02
      2365 MEMB     20       POPE     H6S      HAL2     0.900000E-01   1.00800           0   0.00000     -0.301140E-02
      2366 MEMB     20       POPE     C27      CTL2    -0.180000       12.0110           0   0.00000     -0.301140E-02
      2367 MEMB     20       POPE     H7R      HAL2     0.900000E-01   1.00800           0   0.00000     -0.301140E-02
      2368 MEMB     20       POPE     H7S      HAL2     0.900000E-01   1.00800           0   0.00000     -0.301140E-02
      2369 MEMB     20       POPE     C28      CTL2    -0.180000       12.0110           0   0.00000     -0.301140E-02
      2370 MEMB     20       POPE     H8R      HAL2     0.900000E-01   1.00800           0   0.00000     -0.301140E-02
      2371 MEMB     20       POPE     H8S      HAL2     0.900000E-01   1.00800           0   0.00000     -0.301140E-02
      2372 MEMB     20       POPE     C29      CEL1    -0.150000       12.0110           0   0.00000     -0.301140E-02
      2373 MEMB     20       POPE     H91      HEL1     0.150000       1.00800           0   0.00000     -0.301140E-02
      2374 MEMB     20       POPE     C210     CEL1    -0.150000       12.0110           0   0.00000     -0.301140E-02
      2375 MEMB     20       POPE     H101     HEL1     0.150000       1.00800           0   0.00000     -0.301140E-02
      2376 MEMB     20       POPE     C211     CTL2    -0.180000       12.0110           0   0.00000     -0.301140E-02
      2377 MEMB     20       POPE     H11R     HAL2     0.900000E-01   1.00800           0   0.00000     -0.301140E-02
      2378 MEMB     20       POPE     H11S     HAL2     0.900000E-01   1.00800           0   0.00000     -0.301140E-02
      2379 MEMB     20       POPE     C212     CTL2    -0.180000       12.0110           0   0.00000     -0.301140E-02
      2380 MEMB     20       POPE     H12R     HAL2     0.900000E-01   1.00800           0   0.00000     -0.301140E-02
      2381 MEMB     20       POPE     H12S     HAL2     0.900000E-01   1.00800           0   0.00000     -0.301140E-02
      2382 MEMB     20       POPE     C213     CTL2    -0.180000       12.0110           0   0.00000     -0.301140E-02
      2383 MEMB     20       POPE     H13R     HAL2     0.900000E-01   1.00800           0   0.00000     -0.301140E-02
      2384 MEMB     20       POPE     H13S     HAL2     0.900000E-01   1.00800           0   0.00000     -0.301140E-02
      2385 MEMB     20       POPE     C214     CTL2    -0.180000       12.0110           0   0.00000     -0.301140E-02
      2386 MEMB     20       POPE     H14R     HAL2     0.900000E-01   1.00800           0   0.00000     -0.301140E-02
      2387 MEMB     20       POPE     H14S     HAL2     0.900000E-01   1.00800           0   0.00000     -0.301140E-02
      2388 MEMB     20       POPE     C215     CTL2    -0.180000       12.0110           0   0.00000     -0.301140E-02
      2389 MEMB     20       POPE     H15R     HAL2     0.900000E-01   1.00800           0   0.00000     -0.301140E-02
      2390 MEMB     20       POPE     H15S     HAL2     0.900000E-01   1.00800           0   0.00000     -0.301140E-02
      2391 MEMB     20       POPE     C216     CTL2    -0.180000       12.0110           0   0.00000     -0.301140E-02
      2392 MEMB     20       POPE     H16R     HAL2     0.900000E-01   1.00800           0   0.00000     -0.301140E-02
      2393 MEMB     20       POPE     H16S     HAL2     0.900000E-01   1.00800           0   0.00000     -0.301140E-02
      2394 MEMB     20       POPE     C217     CTL2    -0.180000       12.0110           0   0.00000     -0.301140E-02
      2395 MEMB     20       POPE     H17R     HAL2     0.900000E-01   1.00800           0   0.00000     -0.301140E-02
      2396 MEMB     20       POPE     H17S     HAL2     0.900000E-01   1.00800           0   0.00000     -0.301140E-02
      2397 MEMB     20       POPE     C218     CTL3    -0.270000       12.0110           0   0.00000     -0.301140E-02
      2398 MEMB     20       POPE     H18R     HAL3     0.900000E-01   1.00800           0   0.00000     -0.301140E-02
      2399 MEMB     20       POPE     H18S     HAL3     0.900000E-01   1.00800           0   0.00000     -0.301140E-02
      2400 MEMB     20       POPE     H18T     HAL3     0.900000E-01   1.00800           0   0.00000     -0.301140E-02
      2401 MEMB     20       POPE     C33      CTL2    -0.180000       12.0110           0   0.00000     -0.301140E-02
      2402 MEMB     20       POPE     H3X      HAL2     0.900000E-01   1.00800           0   0.00000     -0.301140E-02
      2403 MEMB     20       POPE     H3Y      HAL2     0.900000E-01   1.00800           0   0.00000     -0.301140E-02
      2404 MEMB     20       POPE     C34      CTL2    -0.180000       12.0110           0   0.00000     -0.301140E-02
      2405 MEMB     20       POPE     H4X      HAL2     0.900000E-01   1.00800           0   0.00000     -0.301140E-02
      2406 MEMB     20       POPE     H4Y      HAL2     0.900000E-01   1.00800           0   0.00000     -0.301140E-02
      2407 MEMB     20       POPE     C35      CTL2    -0.180000       12.0110           0   0.00000     -0.301140E-02
      2408 MEMB     20       POPE     H5X      HAL2     0.900000E-01   1.00800           0   0.00000     -0.301140E-02
      2409 MEMB     20       POPE     H5Y      HAL2     0.900000E-01   1.00800           0   0.00000     -0.301140E-02
      2410 MEMB     20       POPE     C36      CTL2    -0.180000       12.0110           0   0.00000     -0.301140E-02
      2411 MEMB     20       POPE     H6X      HAL2     0.900000E-01   1.00800           0   0.00000     -0.301140E-02
      2412 MEMB     20       POPE     H6Y      HAL2     0.900000E-01   1.00800           0   0.00000     -0.301140E-02
      2413 MEMB     20       POPE     C37      CTL2    -0.180000       12.0110           0   0.00000     -0.301140E-02
      2414 MEMB     20       POPE     H7X      HAL2     0.900000E-01   1.00800           0   0.00000     -0.301140E-02
      2415 MEMB     20       POPE     H7Y      HAL2     0.900000E-01   1.00800           0   0.00000     -0.301140E-02
      2416 MEMB     20       POPE     C38      CTL2    -0.180000       12.0110           0   0.00000     -0.301140E-02
      2417 MEMB     20       POPE     H8X      HAL2     0.900000E-01   1.00800           0   0.00000     -0.301140E-02
      2418 MEMB     20       POPE     H8Y      HAL2     0.900000E-01   1.00800           0   0.00000     -0.301140E-02
      2419 MEMB     20       POPE     C39      CTL2    -0.180000       12.0110           0   0.00000     -0.301140E-02
      2420 MEMB     20       POPE     H9X      HAL2     0.900000E-01   1.00800           0   0.00000     -0.301140E-02
      2421 MEMB     20       POPE     H9Y      HAL2     0.900000E-01   1.00800           0   0.00000     -0.301140E-02
      2422 MEMB     20       POPE     C310     CTL2    -0.180000       12.0110           0   0.00000     -0.301140E-02
      2423 MEMB     20       POPE     H10X     HAL2     0.900000E-01   1.00800           0   0.00000     -0.301140E-02
      2424 MEMB     20       POPE     H10Y     HAL2     0.900000E-01   1.00800           0   0.00000     -0.301140E-02
      2425 MEMB     20       POPE     C311     CTL2    -0.180000       12.0110           0   0.00000     -0.301140E-02
      2426 MEMB     20       POPE     H11X     HAL2     0.900000E-01   1.00800           0   0.00000     -0.301140E-02
      2427 MEMB     20       POPE     H11Y     HAL2     0.900000E-01   1.00800           0   0.00000     -0.301140E-02
      2428 MEMB     20       POPE     C312     CTL2    -0.180000       12.0110           0   0.00000     -0.301140E-02
      2429 MEMB     20       POPE     H12X     HAL2     0.900000E-01   1.00800           0   0.00000     -0.301140E-02
      2430 MEMB     20       POPE     H12Y     HAL2     0.900000E-01   1.00800           0   0.00000     -0.301140E-02
      2431 MEMB     20       POPE     C313     CTL2    -0.180000       12.0110           0   0.00000     -0.301140E-02
      2432 MEMB     20       POPE     H13X     HAL2     0.900000E-01   1.00800           0   0.00000     -0.301140E-02
      2433 MEMB     20       POPE     H13Y     HAL2     0.900000E-01   1.00800           0   0.00000     -0.301140E-02
      2434 MEMB     20       POPE     C314     CTL2    -0.180000       12.0110           0   0.00000     -0.301140E-02
      2435 MEMB     20       POPE     H14X     HAL2     0.900000E-01   1.00800           0   0.00000     -0.301140E-02
      2436 MEMB     20       POPE     H14Y     HAL2     0.900000E-01   1.00800           0   0.00000     -0.301140E-02
      2437 MEMB     20       POPE     C315     CTL2    -0.180000       12.0110           0   0.00000     -0.301140E-02
      2438 MEMB     20       POPE     H15X     HAL2     0.900000E-01   1.00800           0   0.00000     -0.301140E-02
      2439 MEMB     20       POPE     H15Y     HAL2     0.900000E-01   1.00800           0   0.00000     -0.301140E-02
      2440 MEMB     20       POPE     C316     CTL3    -0.270000       12.0110           0   0.00000     -0.301140E-02
      2441 MEMB     20       POPE     H16X     HAL3     0.900000E-01   1.00800           0   0.00000     -0.301140E-02
      2442 MEMB     20       POPE     H16Y     HAL3     0.900000E-01   1.00800           0   0.00000     -0.301140E-02
      2443 MEMB     20       POPE     H16Z     HAL3     0.900000E-01   1.00800           0   0.00000     -0.301140E-02
      2444 MEMB     21       OYPE     N        NH3L    -0.300000       14.0070           0   0.00000     -0.301140E-02
      2445 MEMB     21       OYPE     HN1      HCL      0.330000       1.00800           0   0.00000     -0.301140E-02
      2446 MEMB     21       OYPE     HN2      HCL      0.330000       1.00800           0   0.00000     -0.301140E-02
      2447 MEMB     21       OYPE     HN3      HCL      0.330000       1.00800           0   0.00000     -0.301140E-02
      2448 MEMB     21       OYPE     C12      CTL2     0.130000       12.0110           0   0.00000     -0.301140E-02
      2449 MEMB     21       OYPE     H12A     HAL2     0.900000E-01   1.00800           0   0.00000     -0.301140E-02
      2450 MEMB     21       OYPE     H12B     HAL2     0.900000E-01   1.00800           0   0.00000     -0.301140E-02
      2451 MEMB     21       OYPE     C11      CTL2    -0.800000E-01   12.0110           0   0.00000     -0.301140E-02
      2452 MEMB     21       OYPE     H11A     HAL2     0.900000E-01   1.00800           0   0.00000     -0.301140E-02
      2453 MEMB     21       OYPE     H11B     HAL2     0.900000E-01   1.00800           0   0.00000     -0.301140E-02
      2454 MEMB     21       OYPE     P        PL        1.50000       30.9740           0   0.00000     -0.301140E-02
      2455 MEMB     21       OYPE     O13      O2L     -0.780000       15.9994           0   0.00000     -0.301140E-02
      2456 MEMB     21       OYPE     O14      O2L     -0.780000       15.9994           0   0.00000     -0.301140E-02
      2457 MEMB     21       OYPE     O11      OSLP    -0.570000       15.9994           0   0.00000     -0.301140E-02
      2458 MEMB     21       OYPE     O12      OSLP    -0.570000       15.9994           0   0.00000     -0.301140E-02
      2459 MEMB     21       OYPE     C1       CTL2    -0.800000E-01   12.0110           0   0.00000     -0.301140E-02
      2460 MEMB     21       OYPE     HA       HAL2     0.900000E-01   1.00800           0   0.00000     -0.301140E-02
      2461 MEMB     21       OYPE     HB       HAL2     0.900000E-01   1.00800           0   0.00000     -0.301140E-02
      2462 MEMB     21       OYPE     C2       CTL1     0.170000       12.0110           0   0.00000     -0.301140E-02
      2463 MEMB     21       OYPE     HS       HAL1     0.900000E-01   1.00800           0   0.00000     -0.301140E-02
      2464 MEMB     21       OYPE     O21      OSL     -0.490000       15.9994           0   0.00000     -0.301140E-02
      2465 MEMB     21       OYPE     C21      CL       0.900000       12.0110           0   0.00000     -0.301140E-02
      2466 MEMB     21       OYPE     O22      OBL     -0.630000       15.9994           0   0.00000     -0.301140E-02
      2467 MEMB     21       OYPE     C22      CTL2    -0.220000       12.0110           0   0.00000     -0.301140E-02
      2468 MEMB     21       OYPE     H2R      HAL2     0.900000E-01   1.00800           0   0.00000     -0.301140E-02
      2469 MEMB     21       OYPE     H2S      HAL2     0.900000E-01   1.00800           0   0.00000     -0.301140E-02
      2470 MEMB     21       OYPE     C3       CTL2     0.800000E-01   12.0110           0   0.00000     -0.301140E-02
      2471 MEMB     21       OYPE     HX       HAL2     0.900000E-01   1.00800           0   0.00000     -0.301140E-02
      2472 MEMB     21       OYPE     HY       HAL2     0.900000E-01   1.00800           0   0.00000     -0.301140E-02
      2473 MEMB     21       OYPE     O31      OSL     -0.490000       15.9994           0   0.00000     -0.301140E-02
      2474 MEMB     21       OYPE     C31      CL       0.900000       12.0110           0   0.00000     -0.301140E-02
      2475 MEMB     21       OYPE     O32      OBL     -0.630000       15.9994           0   0.00000     -0.301140E-02
      2476 MEMB     21       OYPE     C32      CTL2    -0.220000       12.0110           0   0.00000     -0.301140E-02
      2477 MEMB     21       OYPE     H2X      HAL2     0.900000E-01   1.00800           0   0.00000     -0.301140E-02
      2478 MEMB     21       OYPE     H2Y      HAL2     0.900000E-01   1.00800           0   0.00000     -0.301140E-02
      2479 MEMB     21       OYPE     C23      CTL2    -0.180000       12.0110           0   0.00000     -0.301140E-02
      2480 MEMB     21       OYPE     H3R      HAL2     0.900000E-01   1.00800           0   0.00000     -0.301140E-02
      2481 MEMB     21       OYPE     H3S      HAL2     0.900000E-01   1.00800           0   0.00000     -0.301140E-02
      2482 MEMB     21       OYPE     C24      CTL2    -0.180000       12.0110           0   0.00000     -0.301140E-02
      2483 MEMB     21       OYPE     H4R      HAL2     0.900000E-01   1.00800           0   0.00000     -0.301140E-02
      2484 MEMB     21       OYPE     H4S      HAL2     0.900000E-01   1.00800           0   0.00000     -0.301140E-02
      2485 MEMB     21       OYPE     C25      CTL2    -0.180000       12.0110           0   0.00000     -0.301140E-02
      2486 MEMB     21       OYPE     H5R      HAL2     0.900000E-01   1.00800           0   0.00000     -0.301140E-02
      2487 MEMB     21       OYPE     H5S      HAL2     0.900000E-01   1.00800           0   0.00000     -0.301140E-02
      2488 MEMB     21       OYPE     C26      CTL2    -0.180000       12.0110           0   0.00000     -0.301140E-02
      2489 MEMB     21       OYPE     H6R      HAL2     0.900000E-01   1.00800           0   0.00000     -0.301140E-02
      2490 MEMB     21       OYPE     H6S      HAL2     0.900000E-01   1.00800           0   0.00000     -0.301140E-02
      2491 MEMB     21       OYPE     C27      CTL2    -0.180000       12.0110           0   0.00000     -0.301140E-02
      2492 MEMB     21       OYPE     H7R      HAL2     0.900000E-01   1.00800           0   0.00000     -0.301140E-02
      2493 MEMB     21       OYPE     H7S      HAL2     0.900000E-01   1.00800           0   0.00000     -0.301140E-02
      2494 MEMB     21       OYPE     C28      CTL2    -0.180000       12.0110           0   0.00000     -0.301140E-02
      2495 MEMB     21       OYPE     H8R      HAL2     0.900000E-01   1.00800           0   0.00000     -0.301140E-02
      2496 MEMB     21       OYPE     H8S      HAL2     0.900000E-01   1.00800           0   0.00000     -0.301140E-02
      2497 MEMB     21       OYPE     C29      CEL1    -0.150000       12.0110           0   0.00000     -0.301140E-02
      2498 MEMB     21       OYPE     H9R      HEL1     0.150000       1.00800           0   0.00000     -0.301140E-02
      2499 MEMB     21       OYPE     C210     CEL1    -0.150000       12.0110           0   0.00000     -0.301140E-02
      2500 MEMB     21       OYPE     H10R     HEL1     0.150000       1.00800           0   0.00000     -0.301140E-02
      2501 MEMB     21       OYPE     C211     CTL2    -0.180000       12.0110           0   0.00000     -0.301140E-02
      2502 MEMB     21       OYPE     H11R     HAL2     0.900000E-01   1.00800           0   0.00000     -0.301140E-02
      2503 MEMB     21       OYPE     H11S     HAL2     0.900000E-01   1.00800           0   0.00000     -0.301140E-02
      2504 MEMB     21       OYPE     C212     CTL2    -0.180000       12.0110           0   0.00000     -0.301140E-02
      2505 MEMB     21       OYPE     H12R     HAL2     0.900000E-01   1.00800           0   0.00000     -0.301140E-02
      2506 MEMB     21       OYPE     H12S     HAL2     0.900000E-01   1.00800           0   0.00000     -0.301140E-02
      2507 MEMB     21       OYPE     C213     CTL2    -0.180000       12.0110           0   0.00000     -0.301140E-02
      2508 MEMB     21       OYPE     H13R     HAL2     0.900000E-01   1.00800           0   0.00000     -0.301140E-02
      2509 MEMB     21       OYPE     H13S     HAL2     0.900000E-01   1.00800           0   0.00000     -0.301140E-02
      2510 MEMB     21       OYPE     C214     CTL2    -0.180000       12.0110           0   0.00000     -0.301140E-02
      2511 MEMB     21       OYPE     H14R     HAL2     0.900000E-01   1.00800           0   0.00000     -0.301140E-02
      2512 MEMB     21       OYPE     H14S     HAL2     0.900000E-01   1.00800           0   0.00000     -0.301140E-02
      2513 MEMB     21       OYPE     C215     CTL2    -0.180000       12.0110           0   0.00000     -0.301140E-02
      2514 MEMB     21       OYPE     H15R     HAL2     0.900000E-01   1.00800           0   0.00000     -0.301140E-02
      2515 MEMB     21       OYPE     H15S     HAL2     0.900000E-01   1.00800           0   0.00000     -0.301140E-02
      2516 MEMB     21       OYPE     C216     CTL3    -0.270000       12.0110           0   0.00000     -0.301140E-02
      2517 MEMB     21       OYPE     H16R     HAL3     0.900000E-01   1.00800           0   0.00000     -0.301140E-02
      2518 MEMB     21       OYPE     H16S     HAL3     0.900000E-01   1.00800           0   0.00000     -0.301140E-02
      2519 MEMB     21       OYPE     H16T     HAL3     0.900000E-01   1.00800           0   0.00000     -0.301140E-02
      2520 MEMB     21       OYPE     C33      CTL2    -0.180000       12.0110           0   0.00000     -0.301140E-02
      2521 MEMB     21       OYPE     H3X      HAL2     0.900000E-01   1.00800           0   0.00000     -0.301140E-02
      2522 MEMB     21       OYPE     H3Y      HAL2     0.900000E-01   1.00800           0   0.00000     -0.301140E-02
      2523 MEMB     21       OYPE     C34      CTL2    -0.180000       12.0110           0   0.00000     -0.301140E-02
      2524 MEMB     21       OYPE     H4X      HAL2     0.900000E-01   1.00800           0   0.00000     -0.301140E-02
      2525 MEMB     21       OYPE     H4Y      HAL2     0.900000E-01   1.00800           0   0.00000     -0.301140E-02
      2526 MEMB     21       OYPE     C35      CTL2    -0.180000       12.0110           0   0.00000     -0.301140E-02
      2527 MEMB     21       OYPE     H5X      HAL2     0.900000E-01   1.00800           0   0.00000     -0.301140E-02
      2528 MEMB     21       OYPE     H5Y      HAL2     0.900000E-01   1.00800           0   0.00000     -0.301140E-02
      2529 MEMB     21       OYPE     C36      CTL2    -0.180000       12.0110           0   0.00000     -0.301140E-02
      2530 MEMB     21       OYPE     H6X      HAL2     0.900000E-01   1.00800           0   0.00000     -0.301140E-02
      2531 MEMB     21       OYPE     H6Y      HAL2     0.900000E-01   1.00800           0   0.00000     -0.301140E-02
      2532 MEMB     21       OYPE     C37      CTL2    -0.180000       12.0110           0   0.00000     -0.301140E-02
      2533 MEMB     21       OYPE     H7X      HAL2     0.900000E-01   1.00800           0   0.00000     -0.301140E-02
      2534 MEMB     21       OYPE     H7Y      HAL2     0.900000E-01   1.00800           0   0.00000     -0.301140E-02
      2535 MEMB     21       OYPE     C38      CTL2    -0.180000       12.0110           0   0.00000     -0.301140E-02
      2536 MEMB     21       OYPE     H8X      HAL2     0.900000E-01   1.00800           0   0.00000     -0.301140E-02
      2537 MEMB     21       OYPE     H8Y      HAL2     0.900000E-01   1.00800           0   0.00000     -0.301140E-02
      2538 MEMB     21       OYPE     C39      CEL1    -0.150000       12.0110           0   0.00000     -0.301140E-02
      2539 MEMB     21       OYPE     H9X      HEL1     0.150000       1.00800           0   0.00000     -0.301140E-02
      2540 MEMB     21       OYPE     C310     CEL1    -0.150000       12.0110           0   0.00000     -0.301140E-02
      2541 MEMB     21       OYPE     H10X     HEL1     0.150000       1.00800           0   0.00000     -0.301140E-02
      2542 MEMB     21       OYPE     C311     CTL2    -0.180000       12.0110           0   0.00000     -0.301140E-02
      2543 MEMB     21       OYPE     H11X     HAL2     0.900000E-01   1.00800           0   0.00000     -0.301140E-02
      2544 MEMB     21       OYPE     H11Y     HAL2     0.900000E-01   1.00800           0   0.00000     -0.301140E-02
      2545 MEMB     21       OYPE     C312     CTL2    -0.180000       12.0110           0   0.00000     -0.301140E-02
      2546 MEMB     21       OYPE     H12X     HAL2     0.900000E-01   1.00800           0   0.00000     -0.301140E-02
      2547 MEMB     21       OYPE     H12Y     HAL2     0.900000E-01   1.00800           0   0.00000     -0.301140E-02
      2548 MEMB     21       OYPE     C313     CTL2    -0.180000       12.0110           0   0.00000     -0.301140E-02
      2549 MEMB     21       OYPE     H13X     HAL2     0.900000E-01   1.00800           0   0.00000     -0.301140E-02
      2550 MEMB     21       OYPE     H13Y     HAL2     0.900000E-01   1.00800           0   0.00000     -0.301140E-02
      2551 MEMB     21       OYPE     C314     CTL2    -0.180000       12.0110           0   0.00000     -0.301140E-02
      2552 MEMB     21       OYPE     H14X     HAL2     0.900000E-01   1.00800           0   0.00000     -0.301140E-02
      2553 MEMB     21       OYPE     H14Y     HAL2     0.900000E-01   1.00800           0   0.00000     -0.301140E-02
      2554 MEMB     21       OYPE     C315     CTL2    -0.180000       12.0110           0   0.00000     -0.301140E-02
      2555 MEMB     21       OYPE     H15X     HAL2     0.900000E-01   1.00800           0   0.00000     -0.301140E-02
      2556 MEMB     21       OYPE     H15Y     HAL2     0.900000E-01   1.00800           0   0.00000     -0.301140E-02
      2557 MEMB     21       OYPE     C316     CTL2    -0.180000       12.0110           0   0.00000     -0.301140E-02
      2558 MEMB     21       OYPE     H16X     HAL2     0.900000E-01   1.00800           0   0.00000     -0.301140E-02
      2559 MEMB     21       OYPE     H16Y     HAL2     0.900000E-01   1.00800           0   0.00000     -0.301140E-02
      2560 MEMB     21       OYPE     C317     CTL2    -0.180000       12.0110           0   0.00000     -0.301140E-02
      2561 MEMB     21       OYPE     H17X     HAL2     0.900000E-01   1.00800           0   0.00000     -0.301140E-02
      2562 MEMB     21       OYPE     H17Y     HAL2     0.900000E-01   1.00800           0   0.00000     -0.301140E-02
      2563 MEMB     21       OYPE     C318     CTL3    -0.270000       12.0110           0   0.00000     -0.301140E-02
      2564 MEMB     21       OYPE     H18X     HAL3     0.900000E-01   1.00800           0   0.00000     -0.301140E-02
      2565 MEMB     21       OYPE     H18Y     HAL3     0.900000E-01   1.00800           0   0.00000     -0.301140E-02
      2566 MEMB     21       OYPE     H18Z     HAL3     0.900000E-01   1.00800           0   0.00000     -0.301140E-02
      2567 MEMB     22       PMPE     N        NH3L    -0.300000       14.0070           0   0.00000     -0.301140E-02
      2568 MEMB     22       PMPE     HN1      HCL      0.330000       1.00800           0   0.00000     -0.301140E-02
      2569 MEMB     22       PMPE     HN2      HCL      0.330000       1.00800           0   0.00000     -0.301140E-02
      2570 MEMB     22       PMPE     HN3      HCL      0.330000       1.00800           0   0.00000     -0.301140E-02
      2571 MEMB     22       PMPE     C12      CTL2     0.130000       12.0110           0   0.00000     -0.301140E-02
      2572 MEMB     22       PMPE     H12A     HAL2     0.900000E-01   1.00800           0   0.00000     -0.301140E-02
      2573 MEMB     22       PMPE     H12B     HAL2     0.900000E-01   1.00800           0   0.00000     -0.301140E-02
      2574 MEMB     22       PMPE     C11      CTL2    -0.800000E-01   12.0110           0   0.00000     -0.301140E-02
      2575 MEMB     22       PMPE     H11A     HAL2     0.900000E-01   1.00800           0   0.00000     -0.301140E-02
      2576 MEMB     22       PMPE     H11B     HAL2     0.900000E-01   1.00800           0   0.00000     -0.301140E-02
      2577 MEMB     22       PMPE     P        PL        1.50000       30.9740           0   0.00000     -0.301140E-02
      2578 MEMB     22       PMPE     O13      O2L     -0.780000       15.9994           0   0.00000     -0.301140E-02
      2579 MEMB     22       PMPE     O14      O2L     -0.780000       15.9994           0   0.00000     -0.301140E-02
      2580 MEMB     22       PMPE     O11      OSLP    -0.570000       15.9994           0   0.00000     -0.301140E-02
      2581 MEMB     22       PMPE     O12      OSLP    -0.570000       15.9994           0   0.00000     -0.301140E-02
      2582 MEMB     22       PMPE     C1       CTL2    -0.800000E-01   12.0110           0   0.00000     -0.301140E-02
      2583 MEMB     22       PMPE     HA       HAL2     0.900000E-01   1.00800           0   0.00000     -0.301140E-02
      2584 MEMB     22       PMPE     HB       HAL2     0.900000E-01   1.00800           0   0.00000     -0.301140E-02
      2585 MEMB     22       PMPE     C2       CTL1     0.170000       12.0110           0   0.00000     -0.301140E-02
      2586 MEMB     22       PMPE     HS       HAL1     0.900000E-01   1.00800           0   0.00000     -0.301140E-02
      2587 MEMB     22       PMPE     O21      OSL     -0.490000       15.9994           0   0.00000     -0.301140E-02
      2588 MEMB     22       PMPE     C21      CL       0.900000       12.0110           0   0.00000     -0.301140E-02
      2589 MEMB     22       PMPE     O22      OBL     -0.630000       15.9994           0   0.00000     -0.301140E-02
      2590 MEMB     22       PMPE     C22      CTL2    -0.220000       12.0110           0   0.00000     -0.301140E-02
      2591 MEMB     22       PMPE     H2R      HAL2     0.900000E-01   1.00800           0   0.00000     -0.301140E-02
      2592 MEMB     22       PMPE     H2S      HAL2     0.900000E-01   1.00800           0   0.00000     -0.301140E-02
      2593 MEMB     22       PMPE     C3       CTL2     0.800000E-01   12.0110           0   0.00000     -0.301140E-02
      2594 MEMB     22       PMPE     HX       HAL2     0.900000E-01   1.00800           0   0.00000     -0.301140E-02
      2595 MEMB     22       PMPE     HY       HAL2     0.900000E-01   1.00800           0   0.00000     -0.301140E-02
      2596 MEMB     22       PMPE     O31      OSL     -0.490000       15.9994           0   0.00000     -0.301140E-02
      2597 MEMB     22       PMPE     C31      CL       0.900000       12.0110           0   0.00000     -0.301140E-02
      2598 MEMB     22       PMPE     O32      OBL     -0.630000       15.9994           0   0.00000     -0.301140E-02
      2599 MEMB     22       PMPE     C32      CTL2    -0.220000       12.0110           0   0.00000     -0.301140E-02
      2600 MEMB     22       PMPE     H2X      HAL2     0.900000E-01   1.00800           0   0.00000     -0.301140E-02
      2601 MEMB     22       PMPE     H2Y      HAL2     0.900000E-01   1.00800           0   0.00000     -0.301140E-02
      2602 MEMB     22       PMPE     C23      CTL2    -0.180000       12.0110           0   0.00000     -0.301140E-02
      2603 MEMB     22       PMPE     H3R      HAL2     0.900000E-01   1.00800           0   0.00000     -0.301140E-02
      2604 MEMB     22       PMPE     H3S      HAL2     0.900000E-01   1.00800           0   0.00000     -0.301140E-02
      2605 MEMB     22       PMPE     C24      CTL2    -0.180000       12.0110           0   0.00000     -0.301140E-02
      2606 MEMB     22       PMPE     H4R      HAL2     0.900000E-01   1.00800           0   0.00000     -0.301140E-02
      2607 MEMB     22       PMPE     H4S      HAL2     0.900000E-01   1.00800           0   0.00000     -0.301140E-02
      2608 MEMB     22       PMPE     C25      CTL2    -0.180000       12.0110           0   0.00000     -0.301140E-02
      2609 MEMB     22       PMPE     H5R      HAL2     0.900000E-01   1.00800           0   0.00000     -0.301140E-02
      2610 MEMB     22       PMPE     H5S      HAL2     0.900000E-01   1.00800           0   0.00000     -0.301140E-02
      2611 MEMB     22       PMPE     C26      CTL2    -0.180000       12.0110           0   0.00000     -0.301140E-02
      2612 MEMB     22       PMPE     H6R      HAL2     0.900000E-01   1.00800           0   0.00000     -0.301140E-02
      2613 MEMB     22       PMPE     H6S      HAL2     0.900000E-01   1.00800           0   0.00000     -0.301140E-02
      2614 MEMB     22       PMPE     C27      CTL2    -0.180000       12.0110           0   0.00000     -0.301140E-02
      2615 MEMB     22       PMPE     H7R      HAL2     0.900000E-01   1.00800           0   0.00000     -0.301140E-02
      2616 MEMB     22       PMPE     H7S      HAL2     0.900000E-01   1.00800           0   0.00000     -0.301140E-02
      2617 MEMB     22       PMPE     C28      CTL2    -0.180000       12.0110           0   0.00000     -0.301140E-02
      2618 MEMB     22       PMPE     H8R      HAL2     0.900000E-01   1.00800           0   0.00000     -0.301140E-02
      2619 MEMB     22       PMPE     H8S      HAL2     0.900000E-01   1.00800           0   0.00000     -0.301140E-02
      2620 MEMB     22       PMPE     C29      CG3RC1  -0.900000E-01   12.0110           0   0.00000     -0.301140E-02
      2621 MEMB     22       PMPE     H9R      HGA1     0.900000E-01   1.00800           0   0.00000     -0.301140E-02
      2622 MEMB     22       PMPE     C217     CG3C31  -0.180000       12.0110           0   0.00000     -0.301140E-02
      2623 MEMB     22       PMPE     H17R     HGA2     0.900000E-01   1.00800           0   0.00000     -0.301140E-02
      2624 MEMB     22       PMPE     H17S     HGA2     0.900000E-01   1.00800           0   0.00000     -0.301140E-02
      2625 MEMB     22       PMPE     C210     CG3RC1  -0.900000E-01   12.0110           0   0.00000     -0.301140E-02
      2626 MEMB     22       PMPE     H10R     HGA1     0.900000E-01   1.00800           0   0.00000     -0.301140E-02
      2627 MEMB     22       PMPE     C211     CTL2    -0.180000       12.0110           0   0.00000     -0.301140E-02
      2628 MEMB     22       PMPE     H11R     HAL2     0.900000E-01   1.00800           0   0.00000     -0.301140E-02
      2629 MEMB     22       PMPE     H11S     HAL2     0.900000E-01   1.00800           0   0.00000     -0.301140E-02
      2630 MEMB     22       PMPE     C212     CTL2    -0.180000       12.0110           0   0.00000     -0.301140E-02
      2631 MEMB     22       PMPE     H12R     HAL2     0.900000E-01   1.00800           0   0.00000     -0.301140E-02
      2632 MEMB     22       PMPE     H12S     HAL2     0.900000E-01   1.00800           0   0.00000     -0.301140E-02
      2633 MEMB     22       PMPE     C213     CTL2    -0.180000       12.0110           0   0.00000     -0.301140E-02
      2634 MEMB     22       PMPE     H13R     HAL2     0.900000E-01   1.00800           0   0.00000     -0.301140E-02
      2635 MEMB     22       PMPE     H13S     HAL2     0.900000E-01   1.00800           0   0.00000     -0.301140E-02
      2636 MEMB     22       PMPE     C214     CTL2    -0.180000       12.0110           0   0.00000     -0.301140E-02
      2637 MEMB     22       PMPE     H14R     HAL2     0.900000E-01   1.00800           0   0.00000     -0.301140E-02
      2638 MEMB     22       PMPE     H14S     HAL2     0.900000E-01   1.00800           0   0.00000     -0.301140E-02
      2639 MEMB     22       PMPE     C215     CTL2    -0.180000       12.0110           0   0.00000     -0.301140E-02
      2640 MEMB     22       PMPE     H15R     HAL2     0.900000E-01   1.00800           0   0.00000     -0.301140E-02
      2641 MEMB     22       PMPE     H15S     HAL2     0.900000E-01   1.00800           0   0.00000     -0.301140E-02
      2642 MEMB     22       PMPE     C216     CTL3    -0.270000       12.0110           0   0.00000     -0.301140E-02
      2643 MEMB     22       PMPE     H16R     HAL3     0.900000E-01   1.00800           0   0.00000     -0.301140E-02
      2644 MEMB     22       PMPE     H16S     HAL3     0.900000E-01   1.00800           0   0.00000     -0.301140E-02
      2645 MEMB     22       PMPE     H16T     HAL3     0.900000E-01   1.00800           0   0.00000     -0.301140E-02
      2646 MEMB     22       PMPE     C33      CTL2    -0.180000       12.0110           0   0.00000     -0.301140E-02
      2647 MEMB     22       PMPE     H3X      HAL2     0.900000E-01   1.00800           0   0.00000     -0.301140E-02
      2648 MEMB     22       PMPE     H3Y      HAL2     0.900000E-01   1.00800           0   0.00000     -0.301140E-02
      2649 MEMB     22       PMPE     C34      CTL2    -0.180000       12.0110           0   0.00000     -0.301140E-02
      2650 MEMB     22       PMPE     H4X      HAL2     0.900000E-01   1.00800           0   0.00000     -0.301140E-02
      2651 MEMB     22       PMPE     H4Y      HAL2     0.900000E-01   1.00800           0   0.00000     -0.301140E-02
      2652 MEMB     22       PMPE     C35      CTL2    -0.180000       12.0110           0   0.00000     -0.301140E-02
      2653 MEMB     22       PMPE     H5X      HAL2     0.900000E-01   1.00800           0   0.00000     -0.301140E-02
      2654 MEMB     22       PMPE     H5Y      HAL2     0.900000E-01   1.00800           0   0.00000     -0.301140E-02
      2655 MEMB     22       PMPE     C36      CTL2    -0.180000       12.0110           0   0.00000     -0.301140E-02
      2656 MEMB     22       PMPE     H6X      HAL2     0.900000E-01   1.00800           0   0.00000     -0.301140E-02
      2657 MEMB     22       PMPE     H6Y      HAL2     0.900000E-01   1.00800           0   0.00000     -0.301140E-02
      2658 MEMB     22       PMPE     C37      CTL2    -0.180000       12.0110           0   0.00000     -0.301140E-02
      2659 MEMB     22       PMPE     H7X      HAL2     0.900000E-01   1.00800           0   0.00000     -0.301140E-02
      2660 MEMB     22       PMPE     H7Y      HAL2     0.900000E-01   1.00800           0   0.00000     -0.301140E-02
      2661 MEMB     22       PMPE     C38      CTL2    -0.180000       12.0110           0   0.00000     -0.301140E-02
      2662 MEMB     22       PMPE     H8X      HAL2     0.900000E-01   1.00800           0   0.00000     -0.301140E-02
      2663 MEMB     22       PMPE     H8Y      HAL2     0.900000E-01   1.00800           0   0.00000     -0.301140E-02
      2664 MEMB     22       PMPE     C39      CTL2    -0.180000       12.0110           0   0.00000     -0.301140E-02
      2665 MEMB     22       PMPE     H9X      HAL2     0.900000E-01   1.00800           0   0.00000     -0.301140E-02
      2666 MEMB     22       PMPE     H9Y      HAL2     0.900000E-01   1.00800           0   0.00000     -0.301140E-02
      2667 MEMB     22       PMPE     C310     CTL2    -0.180000       12.0110           0   0.00000     -0.301140E-02
      2668 MEMB     22       PMPE     H10X     HAL2     0.900000E-01   1.00800           0   0.00000     -0.301140E-02
      2669 MEMB     22       PMPE     H10Y     HAL2     0.900000E-01   1.00800           0   0.00000     -0.301140E-02
      2670 MEMB     22       PMPE     C311     CTL2    -0.180000       12.0110           0   0.00000     -0.301140E-02
      2671 MEMB     22       PMPE     H11X     HAL2     0.900000E-01   1.00800           0   0.00000     -0.301140E-02
      2672 MEMB     22       PMPE     H11Y     HAL2     0.900000E-01   1.00800           0   0.00000     -0.301140E-02
      2673 MEMB     22       PMPE     C312     CTL2    -0.180000       12.0110           0   0.00000     -0.301140E-02
      2674 MEMB     22       PMPE     H12X     HAL2     0.900000E-01   1.00800           0   0.00000     -0.301140E-02
      2675 MEMB     22       PMPE     H12Y     HAL2     0.900000E-01   1.00800           0   0.00000     -0.301140E-02
      2676 MEMB     22       PMPE     C313     CTL2    -0.180000       12.0110           0   0.00000     -0.301140E-02
      2677 MEMB     22       PMPE     H13X     HAL2     0.900000E-01   1.00800           0   0.00000     -0.301140E-02
      2678 MEMB     22       PMPE     H13Y     HAL2     0.900000E-01   1.00800           0   0.00000     -0.301140E-02
      2679 MEMB     22       PMPE     C314     CTL2    -0.180000       12.0110           0   0.00000     -0.301140E-02
      2680 MEMB     22       PMPE     H14X     HAL2     0.900000E-01   1.00800           0   0.00000     -0.301140E-02
      2681 MEMB     22       PMPE     H14Y     HAL2     0.900000E-01   1.00800           0   0.00000     -0.301140E-02
      2682 MEMB     22       PMPE     C315     CTL2    -0.180000       12.0110           0   0.00000     -0.301140E-02
      2683 MEMB     22       PMPE     H15X     HAL2     0.900000E-01   1.00800           0   0.00000     -0.301140E-02
      2684 MEMB     22       PMPE     H15Y     HAL2     0.900000E-01   1.00800           0   0.00000     -0.301140E-02
      2685 MEMB     22       PMPE     C316     CTL3    -0.270000       12.0110           0   0.00000     -0.301140E-02
      2686 MEMB     22       PMPE     H16X     HAL3     0.900000E-01   1.00800           0   0.00000     -0.301140E-02
      2687 MEMB     22       PMPE     H16Y     HAL3     0.900000E-01   1.00800           0   0.00000     -0.301140E-02
      2688 MEMB     22       PMPE     H16Z     HAL3     0.900000E-01   1.00800           0   0.00000     -0.301140E-02
      2689 MEMB     23       PYPG     C13      CTL2     0.500000E-01   12.0110           0   0.00000     -0.301140E-02
      2690 MEMB     23       PYPG     H13A     HAL2     0.900000E-01   1.00800           0   0.00000     -0.301140E-02
      2691 MEMB     23       PYPG     H13B     HAL2     0.900000E-01   1.00800           0   0.00000     -0.301140E-02
      2692 MEMB     23       PYPG     OC3      OHL     -0.660000       15.9994           0   0.00000     -0.301140E-02
      2693 MEMB     23       PYPG     HO3      HOL      0.430000       1.00800           0   0.00000     -0.301140E-02
      2694 MEMB     23       PYPG     C12      CTL1     0.140000       12.0110           0   0.00000     -0.301140E-02
      2695 MEMB     23       PYPG     H12A     HAL1     0.900000E-01   1.00800           0   0.00000     -0.301140E-02
      2696 MEMB     23       PYPG     OC2      OHL     -0.660000       15.9994           0   0.00000     -0.301140E-02
      2697 MEMB     23       PYPG     HO2      HOL      0.430000       1.00800           0   0.00000     -0.301140E-02
      2698 MEMB     23       PYPG     C11      CTL2    -0.800000E-01   12.0110           0   0.00000     -0.301140E-02
      2699 MEMB     23       PYPG     H11A     HAL2     0.900000E-01   1.00800           0   0.00000     -0.301140E-02
      2700 MEMB     23       PYPG     H11B     HAL2     0.900000E-01   1.00800           0   0.00000     -0.301140E-02
      2701 MEMB     23       PYPG     P        PL        1.50000       30.9740           0   0.00000     -0.301140E-02
      2702 MEMB     23       PYPG     O13      O2L     -0.780000       15.9994           0   0.00000     -0.301140E-02
      2703 MEMB     23       PYPG     O14      O2L     -0.780000       15.9994           0   0.00000     -0.301140E-02
      2704 MEMB     23       PYPG     O11      OSLP    -0.570000       15.9994           0   0.00000     -0.301140E-02
      2705 MEMB     23       PYPG     O12      OSLP    -0.570000       15.9994           0   0.00000     -0.301140E-02
      2706 MEMB     23       PYPG     C1       CTL2    -0.800000E-01   12.0110           0   0.00000     -0.301140E-02
      2707 MEMB     23       PYPG     HA       HAL2     0.900000E-01   1.00800           0   0.00000     -0.301140E-02
      2708 MEMB     23       PYPG     HB       HAL2     0.900000E-01   1.00800           0   0.00000     -0.301140E-02
      2709 MEMB     23       PYPG     C2       CTL1     0.170000       12.0110           0   0.00000     -0.301140E-02
      2710 MEMB     23       PYPG     HS       HAL1     0.900000E-01   1.00800           0   0.00000     -0.301140E-02
      2711 MEMB     23       PYPG     O21      OSL     -0.490000       15.9994           0   0.00000     -0.301140E-02
      2712 MEMB     23       PYPG     C21      CL       0.900000       12.0110           0   0.00000     -0.301140E-02
      2713 MEMB     23       PYPG     O22      OBL     -0.630000       15.9994           0   0.00000     -0.301140E-02
      2714 MEMB     23       PYPG     C22      CTL2    -0.220000       12.0110           0   0.00000     -0.301140E-02
      2715 MEMB     23       PYPG     H2R      HAL2     0.900000E-01   1.00800           0   0.00000     -0.301140E-02
      2716 MEMB     23       PYPG     H2S      HAL2     0.900000E-01   1.00800           0   0.00000     -0.301140E-02
      2717 MEMB     23       PYPG     C3       CTL2     0.800000E-01   12.0110           0   0.00000     -0.301140E-02
      2718 MEMB     23       PYPG     HX       HAL2     0.900000E-01   1.00800           0   0.00000     -0.301140E-02
      2719 MEMB     23       PYPG     HY       HAL2     0.900000E-01   1.00800           0   0.00000     -0.301140E-02
      2720 MEMB     23       PYPG     O31      OSL     -0.490000       15.9994           0   0.00000     -0.301140E-02
      2721 MEMB     23       PYPG     C31      CL       0.900000       12.0110           0   0.00000     -0.301140E-02
      2722 MEMB     23       PYPG     O32      OBL     -0.630000       15.9994           0   0.00000     -0.301140E-02
      2723 MEMB     23       PYPG     C32      CTL2    -0.220000       12.0110           0   0.00000     -0.301140E-02
      2724 MEMB     23       PYPG     H2X      HAL2     0.900000E-01   1.00800           0   0.00000     -0.301140E-02
      2725 MEMB     23       PYPG     H2Y      HAL2     0.900000E-01   1.00800           0   0.00000     -0.301140E-02
      2726 MEMB     23       PYPG     C23      CTL2    -0.180000       12.0110           0   0.00000     -0.301140E-02
      2727 MEMB     23       PYPG     H3R      HAL2     0.900000E-01   1.00800           0   0.00000     -0.301140E-02
      2728 MEMB     23       PYPG     H3S      HAL2     0.900000E-01   1.00800           0   0.00000     -0.301140E-02
      2729 MEMB     23       PYPG     C24      CTL2    -0.180000       12.0110           0   0.00000     -0.301140E-02
      2730 MEMB     23       PYPG     H4R      HAL2     0.900000E-01   1.00800           0   0.00000     -0.301140E-02
      2731 MEMB     23       PYPG     H4S      HAL2     0.900000E-01   1.00800           0   0.00000     -0.301140E-02
      2732 MEMB     23       PYPG     C25      CTL2    -0.180000       12.0110           0   0.00000     -0.301140E-02
      2733 MEMB     23       PYPG     H5R      HAL2     0.900000E-01   1.00800           0   0.00000     -0.301140E-02
      2734 MEMB     23       PYPG     H5S      HAL2     0.900000E-01   1.00800           0   0.00000     -0.301140E-02
      2735 MEMB     23       PYPG     C26      CTL2    -0.180000       12.0110           0   0.00000     -0.301140E-02
      2736 MEMB     23       PYPG     H6R      HAL2     0.900000E-01   1.00800           0   0.00000     -0.301140E-02
      2737 MEMB     23       PYPG     H6S      HAL2     0.900000E-01   1.00800           0   0.00000     -0.301140E-02
      2738 MEMB     23       PYPG     C27      CTL2    -0.180000       12.0110           0   0.00000     -0.301140E-02
      2739 MEMB     23       PYPG     H7R      HAL2     0.900000E-01   1.00800           0   0.00000     -0.301140E-02
      2740 MEMB     23       PYPG     H7S      HAL2     0.900000E-01   1.00800           0   0.00000     -0.301140E-02
      2741 MEMB     23       PYPG     C28      CTL2    -0.180000       12.0110           0   0.00000     -0.301140E-02
      2742 MEMB     23       PYPG     H8R      HAL2     0.900000E-01   1.00800           0   0.00000     -0.301140E-02
      2743 MEMB     23       PYPG     H8S      HAL2     0.900000E-01   1.00800           0   0.00000     -0.301140E-02
      2744 MEMB     23       PYPG     C29      CEL1    -0.150000       12.0110           0   0.00000     -0.301140E-02
      2745 MEMB     23       PYPG     H9R      HEL1     0.150000       1.00800           0   0.00000     -0.301140E-02
      2746 MEMB     23       PYPG     C210     CEL1    -0.150000       12.0110           0   0.00000     -0.301140E-02
      2747 MEMB     23       PYPG     H10R     HEL1     0.150000       1.00800           0   0.00000     -0.301140E-02
      2748 MEMB     23       PYPG     C211     CTL2    -0.180000       12.0110           0   0.00000     -0.301140E-02
      2749 MEMB     23       PYPG     H11R     HAL2     0.900000E-01   1.00800           0   0.00000     -0.301140E-02
      2750 MEMB     23       PYPG     H11S     HAL2     0.900000E-01   1.00800           0   0.00000     -0.301140E-02
      2751 MEMB     23       PYPG     C212     CTL2    -0.180000       12.0110           0   0.00000     -0.301140E-02
      2752 MEMB     23       PYPG     H12R     HAL2     0.900000E-01   1.00800           0   0.00000     -0.301140E-02
      2753 MEMB     23       PYPG     H12S     HAL2     0.900000E-01   1.00800           0   0.00000     -0.301140E-02
      2754 MEMB     23       PYPG     C213     CTL2    -0.180000       12.0110           0   0.00000     -0.301140E-02
      2755 MEMB     23       PYPG     H13R     HAL2     0.900000E-01   1.00800           0   0.00000     -0.301140E-02
      2756 MEMB     23       PYPG     H13S     HAL2     0.900000E-01   1.00800           0   0.00000     -0.301140E-02
      2757 MEMB     23       PYPG     C214     CTL2    -0.180000       12.0110           0   0.00000     -0.301140E-02
      2758 MEMB     23       PYPG     H14R     HAL2     0.900000E-01   1.00800           0   0.00000     -0.301140E-02
      2759 MEMB     23       PYPG     H14S     HAL2     0.900000E-01   1.00800           0   0.00000     -0.301140E-02
      2760 MEMB     23       PYPG     C215     CTL2    -0.180000       12.0110           0   0.00000     -0.301140E-02
      2761 MEMB     23       PYPG     H15R     HAL2     0.900000E-01   1.00800           0   0.00000     -0.301140E-02
      2762 MEMB     23       PYPG     H15S     HAL2     0.900000E-01   1.00800           0   0.00000     -0.301140E-02
      2763 MEMB     23       PYPG     C216     CTL3    -0.270000       12.0110           0   0.00000     -0.301140E-02
      2764 MEMB     23       PYPG     H16R     HAL3     0.900000E-01   1.00800           0   0.00000     -0.301140E-02
      2765 MEMB     23       PYPG     H16S     HAL3     0.900000E-01   1.00800           0   0.00000     -0.301140E-02
      2766 MEMB     23       PYPG     H16T     HAL3     0.900000E-01   1.00800           0   0.00000     -0.301140E-02
      2767 MEMB     23       PYPG     C33      CTL2    -0.180000       12.0110           0   0.00000     -0.301140E-02
      2768 MEMB     23       PYPG     H3X      HAL2     0.900000E-01   1.00800           0   0.00000     -0.301140E-02
      2769 MEMB     23       PYPG     H3Y      HAL2     0.900000E-01   1.00800           0   0.00000     -0.301140E-02
      2770 MEMB     23       PYPG     C34      CTL2    -0.180000       12.0110           0   0.00000     -0.301140E-02
      2771 MEMB     23       PYPG     H4X      HAL2     0.900000E-01   1.00800           0   0.00000     -0.301140E-02
      2772 MEMB     23       PYPG     H4Y      HAL2     0.900000E-01   1.00800           0   0.00000     -0.301140E-02
      2773 MEMB     23       PYPG     C35      CTL2    -0.180000       12.0110           0   0.00000     -0.301140E-02
      2774 MEMB     23       PYPG     H5X      HAL2     0.900000E-01   1.00800           0   0.00000     -0.301140E-02
      2775 MEMB     23       PYPG     H5Y      HAL2     0.900000E-01   1.00800           0   0.00000     -0.301140E-02
      2776 MEMB     23       PYPG     C36      CTL2    -0.180000       12.0110           0   0.00000     -0.301140E-02
      2777 MEMB     23       PYPG     H6X      HAL2     0.900000E-01   1.00800           0   0.00000     -0.301140E-02
      2778 MEMB     23       PYPG     H6Y      HAL2     0.900000E-01   1.00800           0   0.00000     -0.301140E-02
      2779 MEMB     23       PYPG     C37      CTL2    -0.180000       12.0110           0   0.00000     -0.301140E-02
      2780 MEMB     23       PYPG     H7X      HAL2     0.900000E-01   1.00800           0   0.00000     -0.301140E-02
      2781 MEMB     23       PYPG     H7Y      HAL2     0.900000E-01   1.00800           0   0.00000     -0.301140E-02
      2782 MEMB     23       PYPG     C38      CTL2    -0.180000       12.0110           0   0.00000     -0.301140E-02
      2783 MEMB     23       PYPG     H8X      HAL2     0.900000E-01   1.00800           0   0.00000     -0.301140E-02
      2784 MEMB     23       PYPG     H8Y      HAL2     0.900000E-01   1.00800           0   0.00000     -0.301140E-02
      2785 MEMB     23       PYPG     C39      CTL2    -0.180000       12.0110           0   0.00000     -0.301140E-02
      2786 MEMB     23       PYPG     H9X      HAL2     0.900000E-01   1.00800           0   0.00000     -0.301140E-02
      2787 MEMB     23       PYPG     H9Y      HAL2     0.900000E-01   1.00800           0   0.00000     -0.301140E-02
      2788 MEMB     23       PYPG     C310     CTL2    -0.180000       12.0110           0   0.00000     -0.301140E-02
      2789 MEMB     23       PYPG     H10X     HAL2     0.900000E-01   1.00800           0   0.00000     -0.301140E-02
      2790 MEMB     23       PYPG     H10Y     HAL2     0.900000E-01   1.00800           0   0.00000     -0.301140E-02
      2791 MEMB     23       PYPG     C311     CTL2    -0.180000       12.0110           0   0.00000     -0.301140E-02
      2792 MEMB     23       PYPG     H11X     HAL2     0.900000E-01   1.00800           0   0.00000     -0.301140E-02
      2793 MEMB     23       PYPG     H11Y     HAL2     0.900000E-01   1.00800           0   0.00000     -0.301140E-02
      2794 MEMB     23       PYPG     C312     CTL2    -0.180000       12.0110           0   0.00000     -0.301140E-02
      2795 MEMB     23       PYPG     H12X     HAL2     0.900000E-01   1.00800           0   0.00000     -0.301140E-02
      2796 MEMB     23       PYPG     H12Y     HAL2     0.900000E-01   1.00800           0   0.00000     -0.301140E-02
      2797 MEMB     23       PYPG     C313     CTL2    -0.180000       12.0110           0   0.00000     -0.301140E-02
      2798 MEMB     23       PYPG     H13X     HAL2     0.900000E-01   1.00800           0   0.00000     -0.301140E-02
      2799 MEMB     23       PYPG     H13Y     HAL2     0.900000E-01   1.00800           0   0.00000     -0.301140E-02
      2800 MEMB     23       PYPG     C314     CTL2    -0.180000       12.0110           0   0.00000     -0.301140E-02
      2801 MEMB     23       PYPG     H14X     HAL2     0.900000E-01   1.00800           0   0.00000     -0.301140E-02
      2802 MEMB     23       PYPG     H14Y     HAL2     0.900000E-01   1.00800           0   0.00000     -0.301140E-02
      2803 MEMB     23       PYPG     C315     CTL2    -0.180000       12.0110           0   0.00000     -0.301140E-02
      2804 MEMB     23       PYPG     H15X     HAL2     0.900000E-01   1.00800           0   0.00000     -0.301140E-02
      2805 MEMB     23       PYPG     H15Y     HAL2     0.900000E-01   1.00800           0   0.00000     -0.301140E-02
      2806 MEMB     23       PYPG     C316     CTL3    -0.270000       12.0110           0   0.00000     -0.301140E-02
      2807 MEMB     23       PYPG     H16X     HAL3     0.900000E-01   1.00800           0   0.00000     -0.301140E-02
      2808 MEMB     23       PYPG     H16Y     HAL3     0.900000E-01   1.00800           0   0.00000     -0.301140E-02
      2809 MEMB     23       PYPG     H16Z     HAL3     0.900000E-01   1.00800           0   0.00000     -0.301140E-02
      2810 MEMB     24       PMPE     N        NH3L    -0.300000       14.0070           0   0.00000     -0.301140E-02
      2811 MEMB     24       PMPE     HN1      HCL      0.330000       1.00800           0   0.00000     -0.301140E-02
      2812 MEMB     24       PMPE     HN2      HCL      0.330000       1.00800           0   0.00000     -0.301140E-02
      2813 MEMB     24       PMPE     HN3      HCL      0.330000       1.00800           0   0.00000     -0.301140E-02
      2814 MEMB     24       PMPE     C12      CTL2     0.130000       12.0110           0   0.00000     -0.301140E-02
      2815 MEMB     24       PMPE     H12A     HAL2     0.900000E-01   1.00800           0   0.00000     -0.301140E-02
      2816 MEMB     24       PMPE     H12B     HAL2     0.900000E-01   1.00800           0   0.00000     -0.301140E-02
      2817 MEMB     24       PMPE     C11      CTL2    -0.800000E-01   12.0110           0   0.00000     -0.301140E-02
      2818 MEMB     24       PMPE     H11A     HAL2     0.900000E-01   1.00800           0   0.00000     -0.301140E-02
      2819 MEMB     24       PMPE     H11B     HAL2     0.900000E-01   1.00800           0   0.00000     -0.301140E-02
      2820 MEMB     24       PMPE     P        PL        1.50000       30.9740           0   0.00000     -0.301140E-02
      2821 MEMB     24       PMPE     O13      O2L     -0.780000       15.9994           0   0.00000     -0.301140E-02
      2822 MEMB     24       PMPE     O14      O2L     -0.780000       15.9994           0   0.00000     -0.301140E-02
      2823 MEMB     24       PMPE     O11      OSLP    -0.570000       15.9994           0   0.00000     -0.301140E-02
      2824 MEMB     24       PMPE     O12      OSLP    -0.570000       15.9994           0   0.00000     -0.301140E-02
      2825 MEMB     24       PMPE     C1       CTL2    -0.800000E-01   12.0110           0   0.00000     -0.301140E-02
      2826 MEMB     24       PMPE     HA       HAL2     0.900000E-01   1.00800           0   0.00000     -0.301140E-02
      2827 MEMB     24       PMPE     HB       HAL2     0.900000E-01   1.00800           0   0.00000     -0.301140E-02
      2828 MEMB     24       PMPE     C2       CTL1     0.170000       12.0110           0   0.00000     -0.301140E-02
      2829 MEMB     24       PMPE     HS       HAL1     0.900000E-01   1.00800           0   0.00000     -0.301140E-02
      2830 MEMB     24       PMPE     O21      OSL     -0.490000       15.9994           0   0.00000     -0.301140E-02
      2831 MEMB     24       PMPE     C21      CL       0.900000       12.0110           0   0.00000     -0.301140E-02
      2832 MEMB     24       PMPE     O22      OBL     -0.630000       15.9994           0   0.00000     -0.301140E-02
      2833 MEMB     24       PMPE     C22      CTL2    -0.220000       12.0110           0   0.00000     -0.301140E-02
      2834 MEMB     24       PMPE     H2R      HAL2     0.900000E-01   1.00800           0   0.00000     -0.301140E-02
      2835 MEMB     24       PMPE     H2S      HAL2     0.900000E-01   1.00800           0   0.00000     -0.301140E-02
      2836 MEMB     24       PMPE     C3       CTL2     0.800000E-01   12.0110           0   0.00000     -0.301140E-02
      2837 MEMB     24       PMPE     HX       HAL2     0.900000E-01   1.00800           0   0.00000     -0.301140E-02
      2838 MEMB     24       PMPE     HY       HAL2     0.900000E-01   1.00800           0   0.00000     -0.301140E-02
      2839 MEMB     24       PMPE     O31      OSL     -0.490000       15.9994           0   0.00000     -0.301140E-02
      2840 MEMB     24       PMPE     C31      CL       0.900000       12.0110           0   0.00000     -0.301140E-02
      2841 MEMB     24       PMPE     O32      OBL     -0.630000       15.9994           0   0.00000     -0.301140E-02
      2842 MEMB     24       PMPE     C32      CTL2    -0.220000       12.0110           0   0.00000     -0.301140E-02
      2843 MEMB     24       PMPE     H2X      HAL2     0.900000E-01   1.00800           0   0.00000     -0.301140E-02
      2844 MEMB     24       PMPE     H2Y      HAL2     0.900000E-01   1.00800           0   0.00000     -0.301140E-02
      2845 MEMB     24       PMPE     C23      CTL2    -0.180000       12.0110           0   0.00000     -0.301140E-02
      2846 MEMB     24       PMPE     H3R      HAL2     0.900000E-01   1.00800           0   0.00000     -0.301140E-02
      2847 MEMB     24       PMPE     H3S      HAL2     0.900000E-01   1.00800           0   0.00000     -0.301140E-02
      2848 MEMB     24       PMPE     C24      CTL2    -0.180000       12.0110           0   0.00000     -0.301140E-02
      2849 MEMB     24       PMPE     H4R      HAL2     0.900000E-01   1.00800           0   0.00000     -0.301140E-02
      2850 MEMB     24       PMPE     H4S      HAL2     0.900000E-01   1.00800           0   0.00000     -0.301140E-02
      2851 MEMB     24       PMPE     C25      CTL2    -0.180000       12.0110           0   0.00000     -0.301140E-02
      2852 MEMB     24       PMPE     H5R      HAL2     0.900000E-01   1.00800           0   0.00000     -0.301140E-02
      2853 MEMB     24       PMPE     H5S      HAL2     0.900000E-01   1.00800           0   0.00000     -0.301140E-02
      2854 MEMB     24       PMPE     C26      CTL2    -0.180000       12.0110           0   0.00000     -0.301140E-02
      2855 MEMB     24       PMPE     H6R      HAL2     0.900000E-01   1.00800           0   0.00000     -0.301140E-02
      2856 MEMB     24       PMPE     H6S      HAL2     0.900000E-01   1.00800           0   0.00000     -0.301140E-02
      2857 MEMB     24       PMPE     C27      CTL2    -0.180000       12.0110           0   0.00000     -0.301140E-02
      2858 MEMB     24       PMPE     H7R      HAL2     0.900000E-01   1.00800           0   0.00000     -0.301140E-02
      2859 MEMB     24       PMPE     H7S      HAL2     0.900000E-01   1.00800           0   0.00000     -0.301140E-02
      2860 MEMB     24       PMPE     C28      CTL2    -0.180000       12.0110           0   0.00000     -0.301140E-02
      2861 MEMB     24       PMPE     H8R      HAL2     0.900000E-01   1.00800           0   0.00000     -0.301140E-02
      2862 MEMB     24       PMPE     H8S      HAL2     0.900000E-01   1.00800           0   0.00000     -0.301140E-02
      2863 MEMB     24       PMPE     C29      CG3RC1  -0.900000E-01   12.0110           0   0.00000     -0.301140E-02
      2864 MEMB     24       PMPE     H9R      HGA1     0.900000E-01   1.00800           0   0.00000     -0.301140E-02
      2865 MEMB     24       PMPE     C217     CG3C31  -0.180000       12.0110           0   0.00000     -0.301140E-02
      2866 MEMB     24       PMPE     H17R     HGA2     0.900000E-01   1.00800           0   0.00000     -0.301140E-02
      2867 MEMB     24       PMPE     H17S     HGA2     0.900000E-01   1.00800           0   0.00000     -0.301140E-02
      2868 MEMB     24       PMPE     C210     CG3RC1  -0.900000E-01   12.0110           0   0.00000     -0.301140E-02
      2869 MEMB     24       PMPE     H10R     HGA1     0.900000E-01   1.00800           0   0.00000     -0.301140E-02
      2870 MEMB     24       PMPE     C211     CTL2    -0.180000       12.0110           0   0.00000     -0.301140E-02
      2871 MEMB     24       PMPE     H11R     HAL2     0.900000E-01   1.00800           0   0.00000     -0.301140E-02
      2872 MEMB     24       PMPE     H11S     HAL2     0.900000E-01   1.00800           0   0.00000     -0.301140E-02
      2873 MEMB     24       PMPE     C212     CTL2    -0.180000       12.0110           0   0.00000     -0.301140E-02
      2874 MEMB     24       PMPE     H12R     HAL2     0.900000E-01   1.00800           0   0.00000     -0.301140E-02
      2875 MEMB     24       PMPE     H12S     HAL2     0.900000E-01   1.00800           0   0.00000     -0.301140E-02
      2876 MEMB     24       PMPE     C213     CTL2    -0.180000       12.0110           0   0.00000     -0.301140E-02
      2877 MEMB     24       PMPE     H13R     HAL2     0.900000E-01   1.00800           0   0.00000     -0.301140E-02
      2878 MEMB     24       PMPE     H13S     HAL2     0.900000E-01   1.00800           0   0.00000     -0.301140E-02
      2879 MEMB     24       PMPE     C214     CTL2    -0.180000       12.0110           0   0.00000     -0.301140E-02
      2880 MEMB     24       PMPE     H14R     HAL2     0.900000E-01   1.00800           0   0.00000     -0.301140E-02
      2881 MEMB     24       PMPE     H14S     HAL2     0.900000E-01   1.00800           0   0.00000     -0.301140E-02
      2882 MEMB     24       PMPE     C215     CTL2    -0.180000       12.0110           0   0.00000     -0.301140E-02
      2883 MEMB     24       PMPE     H15R     HAL2     0.900000E-01   1.00800           0   0.00000     -0.301140E-02
      2884 MEMB     24       PMPE     H15S     HAL2     0.900000E-01   1.00800           0   0.00000     -0.301140E-02
      2885 MEMB     24       PMPE     C216     CTL3    -0.270000       12.0110           0   0.00000     -0.301140E-02
      2886 MEMB     24       PMPE     H16R     HAL3     0.900000E-01   1.00800           0   0.00000     -0.301140E-02
      2887 MEMB     24       PMPE     H16S     HAL3     0.900000E-01   1.00800           0   0.00000     -0.301140E-02
      2888 MEMB     24       PMPE     H16T     HAL3     0.900000E-01   1.00800           0   0.00000     -0.301140E-02
      2889 MEMB     24       PMPE     C33      CTL2    -0.180000       12.0110           0   0.00000     -0.301140E-02
      2890 MEMB     24       PMPE     H3X      HAL2     0.900000E-01   1.00800           0   0.00000     -0.301140E-02
      2891 MEMB     24       PMPE     H3Y      HAL2     0.900000E-01   1.00800           0   0.00000     -0.301140E-02
      2892 MEMB     24       PMPE     C34      CTL2    -0.180000       12.0110           0   0.00000     -0.301140E-02
      2893 MEMB     24       PMPE     H4X      HAL2     0.900000E-01   1.00800           0   0.00000     -0.301140E-02
      2894 MEMB     24       PMPE     H4Y      HAL2     0.900000E-01   1.00800           0   0.00000     -0.301140E-02
      2895 MEMB     24       PMPE     C35      CTL2    -0.180000       12.0110           0   0.00000     -0.301140E-02
      2896 MEMB     24       PMPE     H5X      HAL2     0.900000E-01   1.00800           0   0.00000     -0.301140E-02
      2897 MEMB     24       PMPE     H5Y      HAL2     0.900000E-01   1.00800           0   0.00000     -0.301140E-02
      2898 MEMB     24       PMPE     C36      CTL2    -0.180000       12.0110           0   0.00000     -0.301140E-02
      2899 MEMB     24       PMPE     H6X      HAL2     0.900000E-01   1.00800           0   0.00000     -0.301140E-02
      2900 MEMB     24       PMPE     H6Y      HAL2     0.900000E-01   1.00800           0   0.00000     -0.301140E-02
      2901 MEMB     24       PMPE     C37      CTL2    -0.180000       12.0110           0   0.00000     -0.301140E-02
      2902 MEMB     24       PMPE     H7X      HAL2     0.900000E-01   1.00800           0   0.00000     -0.301140E-02
      2903 MEMB     24       PMPE     H7Y      HAL2     0.900000E-01   1.00800           0   0.00000     -0.301140E-02
      2904 MEMB     24       PMPE     C38      CTL2    -0.180000       12.0110           0   0.00000     -0.301140E-02
      2905 MEMB     24       PMPE     H8X      HAL2     0.900000E-01   1.00800           0   0.00000     -0.301140E-02
      2906 MEMB     24       PMPE     H8Y      HAL2     0.900000E-01   1.00800           0   0.00000     -0.301140E-02
      2907 MEMB     24       PMPE     C39      CTL2    -0.180000       12.0110           0   0.00000     -0.301140E-02
      2908 MEMB     24       PMPE     H9X      HAL2     0.900000E-01   1.00800           0   0.00000     -0.301140E-02
      2909 MEMB     24       PMPE     H9Y      HAL2     0.900000E-01   1.00800           0   0.00000     -0.301140E-02
      2910 MEMB     24       PMPE     C310     CTL2    -0.180000       12.0110           0   0.00000     -0.301140E-02
      2911 MEMB     24       PMPE     H10X     HAL2     0.900000E-01   1.00800           0   0.00000     -0.301140E-02
      2912 MEMB     24       PMPE     H10Y     HAL2     0.900000E-01   1.00800           0   0.00000     -0.301140E-02
      2913 MEMB     24       PMPE     C311     CTL2    -0.180000       12.0110           0   0.00000     -0.301140E-02
      2914 MEMB     24       PMPE     H11X     HAL2     0.900000E-01   1.00800           0   0.00000     -0.301140E-02
      2915 MEMB     24       PMPE     H11Y     HAL2     0.900000E-01   1.00800           0   0.00000     -0.301140E-02
      2916 MEMB     24       PMPE     C312     CTL2    -0.180000       12.0110           0   0.00000     -0.301140E-02
      2917 MEMB     24       PMPE     H12X     HAL2     0.900000E-01   1.00800           0   0.00000     -0.301140E-02
      2918 MEMB     24       PMPE     H12Y     HAL2     0.900000E-01   1.00800           0   0.00000     -0.301140E-02
      2919 MEMB     24       PMPE     C313     CTL2    -0.180000       12.0110           0   0.00000     -0.301140E-02
      2920 MEMB     24       PMPE     H13X     HAL2     0.900000E-01   1.00800           0   0.00000     -0.301140E-02
      2921 MEMB     24       PMPE     H13Y     HAL2     0.900000E-01   1.00800           0   0.00000     -0.301140E-02
      2922 MEMB     24       PMPE     C314     CTL2    -0.180000       12.0110           0   0.00000     -0.301140E-02
      2923 MEMB     24       PMPE     H14X     HAL2     0.900000E-01   1.00800           0   0.00000     -0.301140E-02
      2924 MEMB     24       PMPE     H14Y     HAL2     0.900000E-01   1.00800           0   0.00000     -0.301140E-02
      2925 MEMB     24       PMPE     C315     CTL2    -0.180000       12.0110           0   0.00000     -0.301140E-02
      2926 MEMB     24       PMPE     H15X     HAL2     0.900000E-01   1.00800           0   0.00000     -0.301140E-02
      2927 MEMB     24       PMPE     H15Y     HAL2     0.900000E-01   1.00800           0   0.00000     -0.301140E-02
      2928 MEMB     24       PMPE     C316     CTL3    -0.270000       12.0110           0   0.00000     -0.301140E-02
      2929 MEMB     24       PMPE     H16X     HAL3     0.900000E-01   1.00800           0   0.00000     -0.301140E-02
      2930 MEMB     24       PMPE     H16Y     HAL3     0.900000E-01   1.00800           0   0.00000     -0.301140E-02
      2931 MEMB     24       PMPE     H16Z     HAL3     0.900000E-01   1.00800           0   0.00000     -0.301140E-02
      2932 MEMB     25       PMPE     N        NH3L    -0.300000       14.0070           0   0.00000     -0.301140E-02
      2933 MEMB     25       PMPE     HN1      HCL      0.330000       1.00800           0   0.00000     -0.301140E-02
      2934 MEMB     25       PMPE     HN2      HCL      0.330000       1.00800           0   0.00000     -0.301140E-02
      2935 MEMB     25       PMPE     HN3      HCL      0.330000       1.00800           0   0.00000     -0.301140E-02
      2936 MEMB     25       PMPE     C12      CTL2     0.130000       12.0110           0   0.00000     -0.301140E-02
      2937 MEMB     25       PMPE     H12A     HAL2     0.900000E-01   1.00800           0   0.00000     -0.301140E-02
      2938 MEMB     25       PMPE     H12B     HAL2     0.900000E-01   1.00800           0   0.00000     -0.301140E-02
      2939 MEMB     25       PMPE     C11      CTL2    -0.800000E-01   12.0110           0   0.00000     -0.301140E-02
      2940 MEMB     25       PMPE     H11A     HAL2     0.900000E-01   1.00800           0   0.00000     -0.301140E-02
      2941 MEMB     25       PMPE     H11B     HAL2     0.900000E-01   1.00800           0   0.00000     -0.301140E-02
      2942 MEMB     25       PMPE     P        PL        1.50000       30.9740           0   0.00000     -0.301140E-02
      2943 MEMB     25       PMPE     O13      O2L     -0.780000       15.9994           0   0.00000     -0.301140E-02
      2944 MEMB     25       PMPE     O14      O2L     -0.780000       15.9994           0   0.00000     -0.301140E-02
      2945 MEMB     25       PMPE     O11      OSLP    -0.570000       15.9994           0   0.00000     -0.301140E-02
      2946 MEMB     25       PMPE     O12      OSLP    -0.570000       15.9994           0   0.00000     -0.301140E-02
      2947 MEMB     25       PMPE     C1       CTL2    -0.800000E-01   12.0110           0   0.00000     -0.301140E-02
      2948 MEMB     25       PMPE     HA       HAL2     0.900000E-01   1.00800           0   0.00000     -0.301140E-02
      2949 MEMB     25       PMPE     HB       HAL2     0.900000E-01   1.00800           0   0.00000     -0.301140E-02
      2950 MEMB     25       PMPE     C2       CTL1     0.170000       12.0110           0   0.00000     -0.301140E-02
      2951 MEMB     25       PMPE     HS       HAL1     0.900000E-01   1.00800           0   0.00000     -0.301140E-02
      2952 MEMB     25       PMPE     O21      OSL     -0.490000       15.9994           0   0.00000     -0.301140E-02
      2953 MEMB     25       PMPE     C21      CL       0.900000       12.0110           0   0.00000     -0.301140E-02
      2954 MEMB     25       PMPE     O22      OBL     -0.630000       15.9994           0   0.00000     -0.301140E-02
      2955 MEMB     25       PMPE     C22      CTL2    -0.220000       12.0110           0   0.00000     -0.301140E-02
      2956 MEMB     25       PMPE     H2R      HAL2     0.900000E-01   1.00800           0   0.00000     -0.301140E-02
      2957 MEMB     25       PMPE     H2S      HAL2     0.900000E-01   1.00800           0   0.00000     -0.301140E-02
      2958 MEMB     25       PMPE     C3       CTL2     0.800000E-01   12.0110           0   0.00000     -0.301140E-02
      2959 MEMB     25       PMPE     HX       HAL2     0.900000E-01   1.00800           0   0.00000     -0.301140E-02
      2960 MEMB     25       PMPE     HY       HAL2     0.900000E-01   1.00800           0   0.00000     -0.301140E-02
      2961 MEMB     25       PMPE     O31      OSL     -0.490000       15.9994           0   0.00000     -0.301140E-02
      2962 MEMB     25       PMPE     C31      CL       0.900000       12.0110           0   0.00000     -0.301140E-02
      2963 MEMB     25       PMPE     O32      OBL     -0.630000       15.9994           0   0.00000     -0.301140E-02
      2964 MEMB     25       PMPE     C32      CTL2    -0.220000       12.0110           0   0.00000     -0.301140E-02
      2965 MEMB     25       PMPE     H2X      HAL2     0.900000E-01   1.00800           0   0.00000     -0.301140E-02
      2966 MEMB     25       PMPE     H2Y      HAL2     0.900000E-01   1.00800           0   0.00000     -0.301140E-02
      2967 MEMB     25       PMPE     C23      CTL2    -0.180000       12.0110           0   0.00000     -0.301140E-02
      2968 MEMB     25       PMPE     H3R      HAL2     0.900000E-01   1.00800           0   0.00000     -0.301140E-02
      2969 MEMB     25       PMPE     H3S      HAL2     0.900000E-01   1.00800           0   0.00000     -0.301140E-02
      2970 MEMB     25       PMPE     C24      CTL2    -0.180000       12.0110           0   0.00000     -0.301140E-02
      2971 MEMB     25       PMPE     H4R      HAL2     0.900000E-01   1.00800           0   0.00000     -0.301140E-02
      2972 MEMB     25       PMPE     H4S      HAL2     0.900000E-01   1.00800           0   0.00000     -0.301140E-02
      2973 MEMB     25       PMPE     C25      CTL2    -0.180000       12.0110           0   0.00000     -0.301140E-02
      2974 MEMB     25       PMPE     H5R      HAL2     0.900000E-01   1.00800           0   0.00000     -0.301140E-02
      2975 MEMB     25       PMPE     H5S      HAL2     0.900000E-01   1.00800           0   0.00000     -0.301140E-02
      2976 MEMB     25       PMPE     C26      CTL2    -0.180000       12.0110           0   0.00000     -0.301140E-02
      2977 MEMB     25       PMPE     H6R      HAL2     0.900000E-01   1.00800           0   0.00000     -0.301140E-02
      2978 MEMB     25       PMPE     H6S      HAL2     0.900000E-01   1.00800           0   0.00000     -0.301140E-02
      2979 MEMB     25       PMPE     C27      CTL2    -0.180000       12.0110           0   0.00000     -0.301140E-02
      2980 MEMB     25       PMPE     H7R      HAL2     0.900000E-01   1.00800           0   0.00000     -0.301140E-02
      2981 MEMB     25       PMPE     H7S      HAL2     0.900000E-01   1.00800           0   0.00000     -0.301140E-02
      2982 MEMB     25       PMPE     C28      CTL2    -0.180000       12.0110           0   0.00000     -0.301140E-02
      2983 MEMB     25       PMPE     H8R      HAL2     0.900000E-01   1.00800           0   0.00000     -0.301140E-02
      2984 MEMB     25       PMPE     H8S      HAL2     0.900000E-01   1.00800           0   0.00000     -0.301140E-02
      2985 MEMB     25       PMPE     C29      CG3RC1  -0.900000E-01   12.0110           0   0.00000     -0.301140E-02
      2986 MEMB     25       PMPE     H9R      HGA1     0.900000E-01   1.00800           0   0.00000     -0.301140E-02
      2987 MEMB     25       PMPE     C217     CG3C31  -0.180000       12.0110           0   0.00000     -0.301140E-02
      2988 MEMB     25       PMPE     H17R     HGA2     0.900000E-01   1.00800           0   0.00000     -0.301140E-02
      2989 MEMB     25       PMPE     H17S     HGA2     0.900000E-01   1.00800           0   0.00000     -0.301140E-02
      2990 MEMB     25       PMPE     C210     CG3RC1  -0.900000E-01   12.0110           0   0.00000     -0.301140E-02
      2991 MEMB     25       PMPE     H10R     HGA1     0.900000E-01   1.00800           0   0.00000     -0.301140E-02
      2992 MEMB     25       PMPE     C211     CTL2    -0.180000       12.0110           0   0.00000     -0.301140E-02
      2993 MEMB     25       PMPE     H11R     HAL2     0.900000E-01   1.00800           0   0.00000     -0.301140E-02
      2994 MEMB     25       PMPE     H11S     HAL2     0.900000E-01   1.00800           0   0.00000     -0.301140E-02
      2995 MEMB     25       PMPE     C212     CTL2    -0.180000       12.0110           0   0.00000     -0.301140E-02
      2996 MEMB     25       PMPE     H12R     HAL2     0.900000E-01   1.00800           0   0.00000     -0.301140E-02
      2997 MEMB     25       PMPE     H12S     HAL2     0.900000E-01   1.00800           0   0.00000     -0.301140E-02
      2998 MEMB     25       PMPE     C213     CTL2    -0.180000       12.0110           0   0.00000     -0.301140E-02
      2999 MEMB     25       PMPE     H13R     HAL2     0.900000E-01   1.00800           0   0.00000     -0.301140E-02
      3000 MEMB     25       PMPE     H13S     HAL2     0.900000E-01   1.00800           0   0.00000     -0.301140E-02
      3001 MEMB     25       PMPE     C214     CTL2    -0.180000       12.0110           0   0.00000     -0.301140E-02
      3002 MEMB     25       PMPE     H14R     HAL2     0.900000E-01   1.00800           0   0.00000     -0.301140E-02
      3003 MEMB     25       PMPE     H14S     HAL2     0.900000E-01   1.00800           0   0.00000     -0.301140E-02
      3004 MEMB     25       PMPE     C215     CTL2    -0.180000       12.0110           0   0.00000     -0.301140E-02
      3005 MEMB     25       PMPE     H15R     HAL2     0.900000E-01   1.00800           0   0.00000     -0.301140E-02
      3006 MEMB     25       PMPE     H15S     HAL2     0.900000E-01   1.00800           0   0.00000     -0.301140E-02
      3007 MEMB     25       PMPE     C216     CTL3    -0.270000       12.0110           0   0.00000     -0.301140E-02
      3008 MEMB     25       PMPE     H16R     HAL3     0.900000E-01   1.00800           0   0.00000     -0.301140E-02
      3009 MEMB     25       PMPE     H16S     HAL3     0.900000E-01   1.00800           0   0.00000     -0.301140E-02
      3010 MEMB     25       PMPE     H16T     HAL3     0.900000E-01   1.00800           0   0.00000     -0.301140E-02
      3011 MEMB     25       PMPE     C33      CTL2    -0.180000       12.0110           0   0.00000     -0.301140E-02
      3012 MEMB     25       PMPE     H3X      HAL2     0.900000E-01   1.00800           0   0.00000     -0.301140E-02
      3013 MEMB     25       PMPE     H3Y      HAL2     0.900000E-01   1.00800           0   0.00000     -0.301140E-02
      3014 MEMB     25       PMPE     C34      CTL2    -0.180000       12.0110           0   0.00000     -0.301140E-02
      3015 MEMB     25       PMPE     H4X      HAL2     0.900000E-01   1.00800           0   0.00000     -0.301140E-02
      3016 MEMB     25       PMPE     H4Y      HAL2     0.900000E-01   1.00800           0   0.00000     -0.301140E-02
      3017 MEMB     25       PMPE     C35      CTL2    -0.180000       12.0110           0   0.00000     -0.301140E-02
      3018 MEMB     25       PMPE     H5X      HAL2     0.900000E-01   1.00800           0   0.00000     -0.301140E-02
      3019 MEMB     25       PMPE     H5Y      HAL2     0.900000E-01   1.00800           0   0.00000     -0.301140E-02
      3020 MEMB     25       PMPE     C36      CTL2    -0.180000       12.0110           0   0.00000     -0.301140E-02
      3021 MEMB     25       PMPE     H6X      HAL2     0.900000E-01   1.00800           0   0.00000     -0.301140E-02
      3022 MEMB     25       PMPE     H6Y      HAL2     0.900000E-01   1.00800           0   0.00000     -0.301140E-02
      3023 MEMB     25       PMPE     C37      CTL2    -0.180000       12.0110           0   0.00000     -0.301140E-02
      3024 MEMB     25       PMPE     H7X      HAL2     0.900000E-01   1.00800           0   0.00000     -0.301140E-02
      3025 MEMB     25       PMPE     H7Y      HAL2     0.900000E-01   1.00800           0   0.00000     -0.301140E-02
      3026 MEMB     25       PMPE     C38      CTL2    -0.180000       12.0110           0   0.00000     -0.301140E-02
      3027 MEMB     25       PMPE     H8X      HAL2     0.900000E-01   1.00800           0   0.00000     -0.301140E-02
      3028 MEMB     25       PMPE     H8Y      HAL2     0.900000E-01   1.00800           0   0.00000     -0.301140E-02
      3029 MEMB     25       PMPE     C39      CTL2    -0.180000       12.0110           0   0.00000     -0.301140E-02
      3030 MEMB     25       PMPE     H9X      HAL2     0.900000E-01   1.00800           0   0.00000     -0.301140E-02
      3031 MEMB     25       PMPE     H9Y      HAL2     0.900000E-01   1.00800           0   0.00000     -0.301140E-02
      3032 MEMB     25       PMPE     C310     CTL2    -0.180000       12.0110           0   0.00000     -0.301140E-02
      3033 MEMB     25       PMPE     H10X     HAL2     0.900000E-01   1.00800           0   0.00000     -0.301140E-02
      3034 MEMB     25       PMPE     H10Y     HAL2     0.900000E-01   1.00800           0   0.00000     -0.301140E-02
      3035 MEMB     25       PMPE     C311     CTL2    -0.180000       12.0110           0   0.00000     -0.301140E-02
      3036 MEMB     25       PMPE     H11X     HAL2     0.900000E-01   1.00800           0   0.00000     -0.301140E-02
      3037 MEMB     25       PMPE     H11Y     HAL2     0.900000E-01   1.00800           0   0.00000     -0.301140E-02
      3038 MEMB     25       PMPE     C312     CTL2    -0.180000       12.0110           0   0.00000     -0.301140E-02
      3039 MEMB     25       PMPE     H12X     HAL2     0.900000E-01   1.00800           0   0.00000     -0.301140E-02
      3040 MEMB     25       PMPE     H12Y     HAL2     0.900000E-01   1.00800           0   0.00000     -0.301140E-02
      3041 MEMB     25       PMPE     C313     CTL2    -0.180000       12.0110           0   0.00000     -0.301140E-02
      3042 MEMB     25       PMPE     H13X     HAL2     0.900000E-01   1.00800           0   0.00000     -0.301140E-02
      3043 MEMB     25       PMPE     H13Y     HAL2     0.900000E-01   1.00800           0   0.00000     -0.301140E-02
      3044 MEMB     25       PMPE     C314     CTL2    -0.180000       12.0110           0   0.00000     -0.301140E-02
      3045 MEMB     25       PMPE     H14X     HAL2     0.900000E-01   1.00800           0   0.00000     -0.301140E-02
      3046 MEMB     25       PMPE     H14Y     HAL2     0.900000E-01   1.00800           0   0.00000     -0.301140E-02
      3047 MEMB     25       PMPE     C315     CTL2    -0.180000       12.0110           0   0.00000     -0.301140E-02
      3048 MEMB     25       PMPE     H15X     HAL2     0.900000E-01   1.00800           0   0.00000     -0.301140E-02
      3049 MEMB     25       PMPE     H15Y     HAL2     0.900000E-01   1.00800           0   0.00000     -0.301140E-02
      3050 MEMB     25       PMPE     C316     CTL3    -0.270000       12.0110           0   0.00000     -0.301140E-02
      3051 MEMB     25       PMPE     H16X     HAL3     0.900000E-01   1.00800           0   0.00000     -0.301140E-02
      3052 MEMB     25       PMPE     H16Y     HAL3     0.900000E-01   1.00800           0   0.00000     -0.301140E-02
      3053 MEMB     25       PMPE     H16Z     HAL3     0.900000E-01   1.00800           0   0.00000     -0.301140E-02
      3054 MEMB     26       PMPE     N        NH3L    -0.300000       14.0070           0   0.00000     -0.301140E-02
      3055 MEMB     26       PMPE     HN1      HCL      0.330000       1.00800           0   0.00000     -0.301140E-02
      3056 MEMB     26       PMPE     HN2      HCL      0.330000       1.00800           0   0.00000     -0.301140E-02
      3057 MEMB     26       PMPE     HN3      HCL      0.330000       1.00800           0   0.00000     -0.301140E-02
      3058 MEMB     26       PMPE     C12      CTL2     0.130000       12.0110           0   0.00000     -0.301140E-02
      3059 MEMB     26       PMPE     H12A     HAL2     0.900000E-01   1.00800           0   0.00000     -0.301140E-02
      3060 MEMB     26       PMPE     H12B     HAL2     0.900000E-01   1.00800           0   0.00000     -0.301140E-02
      3061 MEMB     26       PMPE     C11      CTL2    -0.800000E-01   12.0110           0   0.00000     -0.301140E-02
      3062 MEMB     26       PMPE     H11A     HAL2     0.900000E-01   1.00800           0   0.00000     -0.301140E-02
      3063 MEMB     26       PMPE     H11B     HAL2     0.900000E-01   1.00800           0   0.00000     -0.301140E-02
      3064 MEMB     26       PMPE     P        PL        1.50000       30.9740           0   0.00000     -0.301140E-02
      3065 MEMB     26       PMPE     O13      O2L     -0.780000       15.9994           0   0.00000     -0.301140E-02
      3066 MEMB     26       PMPE     O14      O2L     -0.780000       15.9994           0   0.00000     -0.301140E-02
      3067 MEMB     26       PMPE     O11      OSLP    -0.570000       15.9994           0   0.00000     -0.301140E-02
      3068 MEMB     26       PMPE     O12      OSLP    -0.570000       15.9994           0   0.00000     -0.301140E-02
      3069 MEMB     26       PMPE     C1       CTL2    -0.800000E-01   12.0110           0   0.00000     -0.301140E-02
      3070 MEMB     26       PMPE     HA       HAL2     0.900000E-01   1.00800           0   0.00000     -0.301140E-02
      3071 MEMB     26       PMPE     HB       HAL2     0.900000E-01   1.00800           0   0.00000     -0.301140E-02
      3072 MEMB     26       PMPE     C2       CTL1     0.170000       12.0110           0   0.00000     -0.301140E-02
      3073 MEMB     26       PMPE     HS       HAL1     0.900000E-01   1.00800           0   0.00000     -0.301140E-02
      3074 MEMB     26       PMPE     O21      OSL     -0.490000       15.9994           0   0.00000     -0.301140E-02
      3075 MEMB     26       PMPE     C21      CL       0.900000       12.0110           0   0.00000     -0.301140E-02
      3076 MEMB     26       PMPE     O22      OBL     -0.630000       15.9994           0   0.00000     -0.301140E-02
      3077 MEMB     26       PMPE     C22      CTL2    -0.220000       12.0110           0   0.00000     -0.301140E-02
      3078 MEMB     26       PMPE     H2R      HAL2     0.900000E-01   1.00800           0   0.00000     -0.301140E-02
      3079 MEMB     26       PMPE     H2S      HAL2     0.900000E-01   1.00800           0   0.00000     -0.301140E-02
      3080 MEMB     26       PMPE     C3       CTL2     0.800000E-01   12.0110           0   0.00000     -0.301140E-02
      3081 MEMB     26       PMPE     HX       HAL2     0.900000E-01   1.00800           0   0.00000     -0.301140E-02
      3082 MEMB     26       PMPE     HY       HAL2     0.900000E-01   1.00800           0   0.00000     -0.301140E-02
      3083 MEMB     26       PMPE     O31      OSL     -0.490000       15.9994           0   0.00000     -0.301140E-02
      3084 MEMB     26       PMPE     C31      CL       0.900000       12.0110           0   0.00000     -0.301140E-02
      3085 MEMB     26       PMPE     O32      OBL     -0.630000       15.9994           0   0.00000     -0.301140E-02
      3086 MEMB     26       PMPE     C32      CTL2    -0.220000       12.0110           0   0.00000     -0.301140E-02
      3087 MEMB     26       PMPE     H2X      HAL2     0.900000E-01   1.00800           0   0.00000     -0.301140E-02
      3088 MEMB     26       PMPE     H2Y      HAL2     0.900000E-01   1.00800           0   0.00000     -0.301140E-02
      3089 MEMB     26       PMPE     C23      CTL2    -0.180000       12.0110           0   0.00000     -0.301140E-02
      3090 MEMB     26       PMPE     H3R      HAL2     0.900000E-01   1.00800           0   0.00000     -0.301140E-02
      3091 MEMB     26       PMPE     H3S      HAL2     0.900000E-01   1.00800           0   0.00000     -0.301140E-02
      3092 MEMB     26       PMPE     C24      CTL2    -0.180000       12.0110           0   0.00000     -0.301140E-02
      3093 MEMB     26       PMPE     H4R      HAL2     0.900000E-01   1.00800           0   0.00000     -0.301140E-02
      3094 MEMB     26       PMPE     H4S      HAL2     0.900000E-01   1.00800           0   0.00000     -0.301140E-02
      3095 MEMB     26       PMPE     C25      CTL2    -0.180000       12.0110           0   0.00000     -0.301140E-02
      3096 MEMB     26       PMPE     H5R      HAL2     0.900000E-01   1.00800           0   0.00000     -0.301140E-02
      3097 MEMB     26       PMPE     H5S      HAL2     0.900000E-01   1.00800           0   0.00000     -0.301140E-02
      3098 MEMB     26       PMPE     C26      CTL2    -0.180000       12.0110           0   0.00000     -0.301140E-02
      3099 MEMB     26       PMPE     H6R      HAL2     0.900000E-01   1.00800           0   0.00000     -0.301140E-02
      3100 MEMB     26       PMPE     H6S      HAL2     0.900000E-01   1.00800           0   0.00000     -0.301140E-02
      3101 MEMB     26       PMPE     C27      CTL2    -0.180000       12.0110           0   0.00000     -0.301140E-02
      3102 MEMB     26       PMPE     H7R      HAL2     0.900000E-01   1.00800           0   0.00000     -0.301140E-02
      3103 MEMB     26       PMPE     H7S      HAL2     0.900000E-01   1.00800           0   0.00000     -0.301140E-02
      3104 MEMB     26       PMPE     C28      CTL2    -0.180000       12.0110           0   0.00000     -0.301140E-02
      3105 MEMB     26       PMPE     H8R      HAL2     0.900000E-01   1.00800           0   0.00000     -0.301140E-02
      3106 MEMB     26       PMPE     H8S      HAL2     0.900000E-01   1.00800           0   0.00000     -0.301140E-02
      3107 MEMB     26       PMPE     C29      CG3RC1  -0.900000E-01   12.0110           0   0.00000     -0.301140E-02
      3108 MEMB     26       PMPE     H9R      HGA1     0.900000E-01   1.00800           0   0.00000     -0.301140E-02
      3109 MEMB     26       PMPE     C217     CG3C31  -0.180000       12.0110           0   0.00000     -0.301140E-02
      3110 MEMB     26       PMPE     H17R     HGA2     0.900000E-01   1.00800           0   0.00000     -0.301140E-02
      3111 MEMB     26       PMPE     H17S     HGA2     0.900000E-01   1.00800           0   0.00000     -0.301140E-02
      3112 MEMB     26       PMPE     C210     CG3RC1  -0.900000E-01   12.0110           0   0.00000     -0.301140E-02
      3113 MEMB     26       PMPE     H10R     HGA1     0.900000E-01   1.00800           0   0.00000     -0.301140E-02
      3114 MEMB     26       PMPE     C211     CTL2    -0.180000       12.0110           0   0.00000     -0.301140E-02
      3115 MEMB     26       PMPE     H11R     HAL2     0.900000E-01   1.00800           0   0.00000     -0.301140E-02
      3116 MEMB     26       PMPE     H11S     HAL2     0.900000E-01   1.00800           0   0.00000     -0.301140E-02
      3117 MEMB     26       PMPE     C212     CTL2    -0.180000       12.0110           0   0.00000     -0.301140E-02
      3118 MEMB     26       PMPE     H12R     HAL2     0.900000E-01   1.00800           0   0.00000     -0.301140E-02
      3119 MEMB     26       PMPE     H12S     HAL2     0.900000E-01   1.00800           0   0.00000     -0.301140E-02
      3120 MEMB     26       PMPE     C213     CTL2    -0.180000       12.0110           0   0.00000     -0.301140E-02
      3121 MEMB     26       PMPE     H13R     HAL2     0.900000E-01   1.00800           0   0.00000     -0.301140E-02
      3122 MEMB     26       PMPE     H13S     HAL2     0.900000E-01   1.00800           0   0.00000     -0.301140E-02
      3123 MEMB     26       PMPE     C214     CTL2    -0.180000       12.0110           0   0.00000     -0.301140E-02
      3124 MEMB     26       PMPE     H14R     HAL2     0.900000E-01   1.00800           0   0.00000     -0.301140E-02
      3125 MEMB     26       PMPE     H14S     HAL2     0.900000E-01   1.00800           0   0.00000     -0.301140E-02
      3126 MEMB     26       PMPE     C215     CTL2    -0.180000       12.0110           0   0.00000     -0.301140E-02
      3127 MEMB     26       PMPE     H15R     HAL2     0.900000E-01   1.00800           0   0.00000     -0.301140E-02
      3128 MEMB     26       PMPE     H15S     HAL2     0.900000E-01   1.00800           0   0.00000     -0.301140E-02
      3129 MEMB     26       PMPE     C216     CTL3    -0.270000       12.0110           0   0.00000     -0.301140E-02
      3130 MEMB     26       PMPE     H16R     HAL3     0.900000E-01   1.00800           0   0.00000     -0.301140E-02
      3131 MEMB     26       PMPE     H16S     HAL3     0.900000E-01   1.00800           0   0.00000     -0.301140E-02
      3132 MEMB     26       PMPE     H16T     HAL3     0.900000E-01   1.00800           0   0.00000     -0.301140E-02
      3133 MEMB     26       PMPE     C33      CTL2    -0.180000       12.0110           0   0.00000     -0.301140E-02
      3134 MEMB     26       PMPE     H3X      HAL2     0.900000E-01   1.00800           0   0.00000     -0.301140E-02
      3135 MEMB     26       PMPE     H3Y      HAL2     0.900000E-01   1.00800           0   0.00000     -0.301140E-02
      3136 MEMB     26       PMPE     C34      CTL2    -0.180000       12.0110           0   0.00000     -0.301140E-02
      3137 MEMB     26       PMPE     H4X      HAL2     0.900000E-01   1.00800           0   0.00000     -0.301140E-02
      3138 MEMB     26       PMPE     H4Y      HAL2     0.900000E-01   1.00800           0   0.00000     -0.301140E-02
      3139 MEMB     26       PMPE     C35      CTL2    -0.180000       12.0110           0   0.00000     -0.301140E-02
      3140 MEMB     26       PMPE     H5X      HAL2     0.900000E-01   1.00800           0   0.00000     -0.301140E-02
      3141 MEMB     26       PMPE     H5Y      HAL2     0.900000E-01   1.00800           0   0.00000     -0.301140E-02
      3142 MEMB     26       PMPE     C36      CTL2    -0.180000       12.0110           0   0.00000     -0.301140E-02
      3143 MEMB     26       PMPE     H6X      HAL2     0.900000E-01   1.00800           0   0.00000     -0.301140E-02
      3144 MEMB     26       PMPE     H6Y      HAL2     0.900000E-01   1.00800           0   0.00000     -0.301140E-02
      3145 MEMB     26       PMPE     C37      CTL2    -0.180000       12.0110           0   0.00000     -0.301140E-02
      3146 MEMB     26       PMPE     H7X      HAL2     0.900000E-01   1.00800           0   0.00000     -0.301140E-02
      3147 MEMB     26       PMPE     H7Y      HAL2     0.900000E-01   1.00800           0   0.00000     -0.301140E-02
      3148 MEMB     26       PMPE     C38      CTL2    -0.180000       12.0110           0   0.00000     -0.301140E-02
      3149 MEMB     26       PMPE     H8X      HAL2     0.900000E-01   1.00800           0   0.00000     -0.301140E-02
      3150 MEMB     26       PMPE     H8Y      HAL2     0.900000E-01   1.00800           0   0.00000     -0.301140E-02
      3151 MEMB     26       PMPE     C39      CTL2    -0.180000       12.0110           0   0.00000     -0.301140E-02
      3152 MEMB     26       PMPE     H9X      HAL2     0.900000E-01   1.00800           0   0.00000     -0.301140E-02
      3153 MEMB     26       PMPE     H9Y      HAL2     0.900000E-01   1.00800           0   0.00000     -0.301140E-02
      3154 MEMB     26       PMPE     C310     CTL2    -0.180000       12.0110           0   0.00000     -0.301140E-02
      3155 MEMB     26       PMPE     H10X     HAL2     0.900000E-01   1.00800           0   0.00000     -0.301140E-02
      3156 MEMB     26       PMPE     H10Y     HAL2     0.900000E-01   1.00800           0   0.00000     -0.301140E-02
      3157 MEMB     26       PMPE     C311     CTL2    -0.180000       12.0110           0   0.00000     -0.301140E-02
      3158 MEMB     26       PMPE     H11X     HAL2     0.900000E-01   1.00800           0   0.00000     -0.301140E-02
      3159 MEMB     26       PMPE     H11Y     HAL2     0.900000E-01   1.00800           0   0.00000     -0.301140E-02
      3160 MEMB     26       PMPE     C312     CTL2    -0.180000       12.0110           0   0.00000     -0.301140E-02
      3161 MEMB     26       PMPE     H12X     HAL2     0.900000E-01   1.00800           0   0.00000     -0.301140E-02
      3162 MEMB     26       PMPE     H12Y     HAL2     0.900000E-01   1.00800           0   0.00000     -0.301140E-02
      3163 MEMB     26       PMPE     C313     CTL2    -0.180000       12.0110           0   0.00000     -0.301140E-02
      3164 MEMB     26       PMPE     H13X     HAL2     0.900000E-01   1.00800           0   0.00000     -0.301140E-02
      3165 MEMB     26       PMPE     H13Y     HAL2     0.900000E-01   1.00800           0   0.00000     -0.301140E-02
      3166 MEMB     26       PMPE     C314     CTL2    -0.180000       12.0110           0   0.00000     -0.301140E-02
      3167 MEMB     26       PMPE     H14X     HAL2     0.900000E-01   1.00800           0   0.00000     -0.301140E-02
      3168 MEMB     26       PMPE     H14Y     HAL2     0.900000E-01   1.00800           0   0.00000     -0.301140E-02
      3169 MEMB     26       PMPE     C315     CTL2    -0.180000       12.0110           0   0.00000     -0.301140E-02
      3170 MEMB     26       PMPE     H15X     HAL2     0.900000E-01   1.00800           0   0.00000     -0.301140E-02
      3171 MEMB     26       PMPE     H15Y     HAL2     0.900000E-01   1.00800           0   0.00000     -0.301140E-02
      3172 MEMB     26       PMPE     C316     CTL3    -0.270000       12.0110           0   0.00000     -0.301140E-02
      3173 MEMB     26       PMPE     H16X     HAL3     0.900000E-01   1.00800           0   0.00000     -0.301140E-02
      3174 MEMB     26       PMPE     H16Y     HAL3     0.900000E-01   1.00800           0   0.00000     -0.301140E-02
      3175 MEMB     26       PMPE     H16Z     HAL3     0.900000E-01   1.00800           0   0.00000     -0.301140E-02
      3176 MEMB     27       PMPE     N        NH3L    -0.300000       14.0070           0   0.00000     -0.301140E-02
      3177 MEMB     27       PMPE     HN1      HCL      0.330000       1.00800           0   0.00000     -0.301140E-02
      3178 MEMB     27       PMPE     HN2      HCL      0.330000       1.00800           0   0.00000     -0.301140E-02
      3179 MEMB     27       PMPE     HN3      HCL      0.330000       1.00800           0   0.00000     -0.301140E-02
      3180 MEMB     27       PMPE     C12      CTL2     0.130000       12.0110           0   0.00000     -0.301140E-02
      3181 MEMB     27       PMPE     H12A     HAL2     0.900000E-01   1.00800           0   0.00000     -0.301140E-02
      3182 MEMB     27       PMPE     H12B     HAL2     0.900000E-01   1.00800           0   0.00000     -0.301140E-02
      3183 MEMB     27       PMPE     C11      CTL2    -0.800000E-01   12.0110           0   0.00000     -0.301140E-02
      3184 MEMB     27       PMPE     H11A     HAL2     0.900000E-01   1.00800           0   0.00000     -0.301140E-02
      3185 MEMB     27       PMPE     H11B     HAL2     0.900000E-01   1.00800           0   0.00000     -0.301140E-02
      3186 MEMB     27       PMPE     P        PL        1.50000       30.9740           0   0.00000     -0.301140E-02
      3187 MEMB     27       PMPE     O13      O2L     -0.780000       15.9994           0   0.00000     -0.301140E-02
      3188 MEMB     27       PMPE     O14      O2L     -0.780000       15.9994           0   0.00000     -0.301140E-02
      3189 MEMB     27       PMPE     O11      OSLP    -0.570000       15.9994           0   0.00000     -0.301140E-02
      3190 MEMB     27       PMPE     O12      OSLP    -0.570000       15.9994           0   0.00000     -0.301140E-02
      3191 MEMB     27       PMPE     C1       CTL2    -0.800000E-01   12.0110           0   0.00000     -0.301140E-02
      3192 MEMB     27       PMPE     HA       HAL2     0.900000E-01   1.00800           0   0.00000     -0.301140E-02
      3193 MEMB     27       PMPE     HB       HAL2     0.900000E-01   1.00800           0   0.00000     -0.301140E-02
      3194 MEMB     27       PMPE     C2       CTL1     0.170000       12.0110           0   0.00000     -0.301140E-02
      3195 MEMB     27       PMPE     HS       HAL1     0.900000E-01   1.00800           0   0.00000     -0.301140E-02
      3196 MEMB     27       PMPE     O21      OSL     -0.490000       15.9994           0   0.00000     -0.301140E-02
      3197 MEMB     27       PMPE     C21      CL       0.900000       12.0110           0   0.00000     -0.301140E-02
      3198 MEMB     27       PMPE     O22      OBL     -0.630000       15.9994           0   0.00000     -0.301140E-02
      3199 MEMB     27       PMPE     C22      CTL2    -0.220000       12.0110           0   0.00000     -0.301140E-02
      3200 MEMB     27       PMPE     H2R      HAL2     0.900000E-01   1.00800           0   0.00000     -0.301140E-02
      3201 MEMB     27       PMPE     H2S      HAL2     0.900000E-01   1.00800           0   0.00000     -0.301140E-02
      3202 MEMB     27       PMPE     C3       CTL2     0.800000E-01   12.0110           0   0.00000     -0.301140E-02
      3203 MEMB     27       PMPE     HX       HAL2     0.900000E-01   1.00800           0   0.00000     -0.301140E-02
      3204 MEMB     27       PMPE     HY       HAL2     0.900000E-01   1.00800           0   0.00000     -0.301140E-02
      3205 MEMB     27       PMPE     O31      OSL     -0.490000       15.9994           0   0.00000     -0.301140E-02
      3206 MEMB     27       PMPE     C31      CL       0.900000       12.0110           0   0.00000     -0.301140E-02
      3207 MEMB     27       PMPE     O32      OBL     -0.630000       15.9994           0   0.00000     -0.301140E-02
      3208 MEMB     27       PMPE     C32      CTL2    -0.220000       12.0110           0   0.00000     -0.301140E-02
      3209 MEMB     27       PMPE     H2X      HAL2     0.900000E-01   1.00800           0   0.00000     -0.301140E-02
      3210 MEMB     27       PMPE     H2Y      HAL2     0.900000E-01   1.00800           0   0.00000     -0.301140E-02
      3211 MEMB     27       PMPE     C23      CTL2    -0.180000       12.0110           0   0.00000     -0.301140E-02
      3212 MEMB     27       PMPE     H3R      HAL2     0.900000E-01   1.00800           0   0.00000     -0.301140E-02
      3213 MEMB     27       PMPE     H3S      HAL2     0.900000E-01   1.00800           0   0.00000     -0.301140E-02
      3214 MEMB     27       PMPE     C24      CTL2    -0.180000       12.0110           0   0.00000     -0.301140E-02
      3215 MEMB     27       PMPE     H4R      HAL2     0.900000E-01   1.00800           0   0.00000     -0.301140E-02
      3216 MEMB     27       PMPE     H4S      HAL2     0.900000E-01   1.00800           0   0.00000     -0.301140E-02
      3217 MEMB     27       PMPE     C25      CTL2    -0.180000       12.0110           0   0.00000     -0.301140E-02
      3218 MEMB     27       PMPE     H5R      HAL2     0.900000E-01   1.00800           0   0.00000     -0.301140E-02
      3219 MEMB     27       PMPE     H5S      HAL2     0.900000E-01   1.00800           0   0.00000     -0.301140E-02
      3220 MEMB     27       PMPE     C26      CTL2    -0.180000       12.0110           0   0.00000     -0.301140E-02
      3221 MEMB     27       PMPE     H6R      HAL2     0.900000E-01   1.00800           0   0.00000     -0.301140E-02
      3222 MEMB     27       PMPE     H6S      HAL2     0.900000E-01   1.00800           0   0.00000     -0.301140E-02
      3223 MEMB     27       PMPE     C27      CTL2    -0.180000       12.0110           0   0.00000     -0.301140E-02
      3224 MEMB     27       PMPE     H7R      HAL2     0.900000E-01   1.00800           0   0.00000     -0.301140E-02
      3225 MEMB     27       PMPE     H7S      HAL2     0.900000E-01   1.00800           0   0.00000     -0.301140E-02
      3226 MEMB     27       PMPE     C28      CTL2    -0.180000       12.0110           0   0.00000     -0.301140E-02
      3227 MEMB     27       PMPE     H8R      HAL2     0.900000E-01   1.00800           0   0.00000     -0.301140E-02
      3228 MEMB     27       PMPE     H8S      HAL2     0.900000E-01   1.00800           0   0.00000     -0.301140E-02
      3229 MEMB     27       PMPE     C29      CG3RC1  -0.900000E-01   12.0110           0   0.00000     -0.301140E-02
      3230 MEMB     27       PMPE     H9R      HGA1     0.900000E-01   1.00800           0   0.00000     -0.301140E-02
      3231 MEMB     27       PMPE     C217     CG3C31  -0.180000       12.0110           0   0.00000     -0.301140E-02
      3232 MEMB     27       PMPE     H17R     HGA2     0.900000E-01   1.00800           0   0.00000     -0.301140E-02
      3233 MEMB     27       PMPE     H17S     HGA2     0.900000E-01   1.00800           0   0.00000     -0.301140E-02
      3234 MEMB     27       PMPE     C210     CG3RC1  -0.900000E-01   12.0110           0   0.00000     -0.301140E-02
      3235 MEMB     27       PMPE     H10R     HGA1     0.900000E-01   1.00800           0   0.00000     -0.301140E-02
      3236 MEMB     27       PMPE     C211     CTL2    -0.180000       12.0110           0   0.00000     -0.301140E-02
      3237 MEMB     27       PMPE     H11R     HAL2     0.900000E-01   1.00800           0   0.00000     -0.301140E-02
      3238 MEMB     27       PMPE     H11S     HAL2     0.900000E-01   1.00800           0   0.00000     -0.301140E-02
      3239 MEMB     27       PMPE     C212     CTL2    -0.180000       12.0110           0   0.00000     -0.301140E-02
      3240 MEMB     27       PMPE     H12R     HAL2     0.900000E-01   1.00800           0   0.00000     -0.301140E-02
      3241 MEMB     27       PMPE     H12S     HAL2     0.900000E-01   1.00800           0   0.00000     -0.301140E-02
      3242 MEMB     27       PMPE     C213     CTL2    -0.180000       12.0110           0   0.00000     -0.301140E-02
      3243 MEMB     27       PMPE     H13R     HAL2     0.900000E-01   1.00800           0   0.00000     -0.301140E-02
      3244 MEMB     27       PMPE     H13S     HAL2     0.900000E-01   1.00800           0   0.00000     -0.301140E-02
      3245 MEMB     27       PMPE     C214     CTL2    -0.180000       12.0110           0   0.00000     -0.301140E-02
      3246 MEMB     27       PMPE     H14R     HAL2     0.900000E-01   1.00800           0   0.00000     -0.301140E-02
      3247 MEMB     27       PMPE     H14S     HAL2     0.900000E-01   1.00800           0   0.00000     -0.301140E-02
      3248 MEMB     27       PMPE     C215     CTL2    -0.180000       12.0110           0   0.00000     -0.301140E-02
      3249 MEMB     27       PMPE     H15R     HAL2     0.900000E-01   1.00800           0   0.00000     -0.301140E-02
      3250 MEMB     27       PMPE     H15S     HAL2     0.900000E-01   1.00800           0   0.00000     -0.301140E-02
      3251 MEMB     27       PMPE     C216     CTL3    -0.270000       12.0110           0   0.00000     -0.301140E-02
      3252 MEMB     27       PMPE     H16R     HAL3     0.900000E-01   1.00800           0   0.00000     -0.301140E-02
      3253 MEMB     27       PMPE     H16S     HAL3     0.900000E-01   1.00800           0   0.00000     -0.301140E-02
      3254 MEMB     27       PMPE     H16T     HAL3     0.900000E-01   1.00800           0   0.00000     -0.301140E-02
      3255 MEMB     27       PMPE     C33      CTL2    -0.180000       12.0110           0   0.00000     -0.301140E-02
      3256 MEMB     27       PMPE     H3X      HAL2     0.900000E-01   1.00800           0   0.00000     -0.301140E-02
      3257 MEMB     27       PMPE     H3Y      HAL2     0.900000E-01   1.00800           0   0.00000     -0.301140E-02
      3258 MEMB     27       PMPE     C34      CTL2    -0.180000       12.0110           0   0.00000     -0.301140E-02
      3259 MEMB     27       PMPE     H4X      HAL2     0.900000E-01   1.00800           0   0.00000     -0.301140E-02
      3260 MEMB     27       PMPE     H4Y      HAL2     0.900000E-01   1.00800           0   0.00000     -0.301140E-02
      3261 MEMB     27       PMPE     C35      CTL2    -0.180000       12.0110           0   0.00000     -0.301140E-02
      3262 MEMB     27       PMPE     H5X      HAL2     0.900000E-01   1.00800           0   0.00000     -0.301140E-02
      3263 MEMB     27       PMPE     H5Y      HAL2     0.900000E-01   1.00800           0   0.00000     -0.301140E-02
      3264 MEMB     27       PMPE     C36      CTL2    -0.180000       12.0110           0   0.00000     -0.301140E-02
      3265 MEMB     27       PMPE     H6X      HAL2     0.900000E-01   1.00800           0   0.00000     -0.301140E-02
      3266 MEMB     27       PMPE     H6Y      HAL2     0.900000E-01   1.00800           0   0.00000     -0.301140E-02
      3267 MEMB     27       PMPE     C37      CTL2    -0.180000       12.0110           0   0.00000     -0.301140E-02
      3268 MEMB     27       PMPE     H7X      HAL2     0.900000E-01   1.00800           0   0.00000     -0.301140E-02
      3269 MEMB     27       PMPE     H7Y      HAL2     0.900000E-01   1.00800           0   0.00000     -0.301140E-02
      3270 MEMB     27       PMPE     C38      CTL2    -0.180000       12.0110           0   0.00000     -0.301140E-02
      3271 MEMB     27       PMPE     H8X      HAL2     0.900000E-01   1.00800           0   0.00000     -0.301140E-02
      3272 MEMB     27       PMPE     H8Y      HAL2     0.900000E-01   1.00800           0   0.00000     -0.301140E-02
      3273 MEMB     27       PMPE     C39      CTL2    -0.180000       12.0110           0   0.00000     -0.301140E-02
      3274 MEMB     27       PMPE     H9X      HAL2     0.900000E-01   1.00800           0   0.00000     -0.301140E-02
      3275 MEMB     27       PMPE     H9Y      HAL2     0.900000E-01   1.00800           0   0.00000     -0.301140E-02
      3276 MEMB     27       PMPE     C310     CTL2    -0.180000       12.0110           0   0.00000     -0.301140E-02
      3277 MEMB     27       PMPE     H10X     HAL2     0.900000E-01   1.00800           0   0.00000     -0.301140E-02
      3278 MEMB     27       PMPE     H10Y     HAL2     0.900000E-01   1.00800           0   0.00000     -0.301140E-02
      3279 MEMB     27       PMPE     C311     CTL2    -0.180000       12.0110           0   0.00000     -0.301140E-02
      3280 MEMB     27       PMPE     H11X     HAL2     0.900000E-01   1.00800           0   0.00000     -0.301140E-02
      3281 MEMB     27       PMPE     H11Y     HAL2     0.900000E-01   1.00800           0   0.00000     -0.301140E-02
      3282 MEMB     27       PMPE     C312     CTL2    -0.180000       12.0110           0   0.00000     -0.301140E-02
      3283 MEMB     27       PMPE     H12X     HAL2     0.900000E-01   1.00800           0   0.00000     -0.301140E-02
      3284 MEMB     27       PMPE     H12Y     HAL2     0.900000E-01   1.00800           0   0.00000     -0.301140E-02
      3285 MEMB     27       PMPE     C313     CTL2    -0.180000       12.0110           0   0.00000     -0.301140E-02
      3286 MEMB     27       PMPE     H13X     HAL2     0.900000E-01   1.00800           0   0.00000     -0.301140E-02
      3287 MEMB     27       PMPE     H13Y     HAL2     0.900000E-01   1.00800           0   0.00000     -0.301140E-02
      3288 MEMB     27       PMPE     C314     CTL2    -0.180000       12.0110           0   0.00000     -0.301140E-02
      3289 MEMB     27       PMPE     H14X     HAL2     0.900000E-01   1.00800           0   0.00000     -0.301140E-02
      3290 MEMB     27       PMPE     H14Y     HAL2     0.900000E-01   1.00800           0   0.00000     -0.301140E-02
      3291 MEMB     27       PMPE     C315     CTL2    -0.180000       12.0110           0   0.00000     -0.301140E-02
      3292 MEMB     27       PMPE     H15X     HAL2     0.900000E-01   1.00800           0   0.00000     -0.301140E-02
      3293 MEMB     27       PMPE     H15Y     HAL2     0.900000E-01   1.00800           0   0.00000     -0.301140E-02
      3294 MEMB     27       PMPE     C316     CTL3    -0.270000       12.0110           0   0.00000     -0.301140E-02
      3295 MEMB     27       PMPE     H16X     HAL3     0.900000E-01   1.00800           0   0.00000     -0.301140E-02
      3296 MEMB     27       PMPE     H16Y     HAL3     0.900000E-01   1.00800           0   0.00000     -0.301140E-02
      3297 MEMB     27       PMPE     H16Z     HAL3     0.900000E-01   1.00800           0   0.00000     -0.301140E-02
      3298 MEMB     28       PMPE     N        NH3L    -0.300000       14.0070           0   0.00000     -0.301140E-02
      3299 MEMB     28       PMPE     HN1      HCL      0.330000       1.00800           0   0.00000     -0.301140E-02
      3300 MEMB     28       PMPE     HN2      HCL      0.330000       1.00800           0   0.00000     -0.301140E-02
      3301 MEMB     28       PMPE     HN3      HCL      0.330000       1.00800           0   0.00000     -0.301140E-02
      3302 MEMB     28       PMPE     C12      CTL2     0.130000       12.0110           0   0.00000     -0.301140E-02
      3303 MEMB     28       PMPE     H12A     HAL2     0.900000E-01   1.00800           0   0.00000     -0.301140E-02
      3304 MEMB     28       PMPE     H12B     HAL2     0.900000E-01   1.00800           0   0.00000     -0.301140E-02
      3305 MEMB     28       PMPE     C11      CTL2    -0.800000E-01   12.0110           0   0.00000     -0.301140E-02
      3306 MEMB     28       PMPE     H11A     HAL2     0.900000E-01   1.00800           0   0.00000     -0.301140E-02
      3307 MEMB     28       PMPE     H11B     HAL2     0.900000E-01   1.00800           0   0.00000     -0.301140E-02
      3308 MEMB     28       PMPE     P        PL        1.50000       30.9740           0   0.00000     -0.301140E-02
      3309 MEMB     28       PMPE     O13      O2L     -0.780000       15.9994           0   0.00000     -0.301140E-02
      3310 MEMB     28       PMPE     O14      O2L     -0.780000       15.9994           0   0.00000     -0.301140E-02
      3311 MEMB     28       PMPE     O11      OSLP    -0.570000       15.9994           0   0.00000     -0.301140E-02
      3312 MEMB     28       PMPE     O12      OSLP    -0.570000       15.9994           0   0.00000     -0.301140E-02
      3313 MEMB     28       PMPE     C1       CTL2    -0.800000E-01   12.0110           0   0.00000     -0.301140E-02
      3314 MEMB     28       PMPE     HA       HAL2     0.900000E-01   1.00800           0   0.00000     -0.301140E-02
      3315 MEMB     28       PMPE     HB       HAL2     0.900000E-01   1.00800           0   0.00000     -0.301140E-02
      3316 MEMB     28       PMPE     C2       CTL1     0.170000       12.0110           0   0.00000     -0.301140E-02
      3317 MEMB     28       PMPE     HS       HAL1     0.900000E-01   1.00800           0   0.00000     -0.301140E-02
      3318 MEMB     28       PMPE     O21      OSL     -0.490000       15.9994           0   0.00000     -0.301140E-02
      3319 MEMB     28       PMPE     C21      CL       0.900000       12.0110           0   0.00000     -0.301140E-02
      3320 MEMB     28       PMPE     O22      OBL     -0.630000       15.9994           0   0.00000     -0.301140E-02
      3321 MEMB     28       PMPE     C22      CTL2    -0.220000       12.0110           0   0.00000     -0.301140E-02
      3322 MEMB     28       PMPE     H2R      HAL2     0.900000E-01   1.00800           0   0.00000     -0.301140E-02
      3323 MEMB     28       PMPE     H2S      HAL2     0.900000E-01   1.00800           0   0.00000     -0.301140E-02
      3324 MEMB     28       PMPE     C3       CTL2     0.800000E-01   12.0110           0   0.00000     -0.301140E-02
      3325 MEMB     28       PMPE     HX       HAL2     0.900000E-01   1.00800           0   0.00000     -0.301140E-02
      3326 MEMB     28       PMPE     HY       HAL2     0.900000E-01   1.00800           0   0.00000     -0.301140E-02
      3327 MEMB     28       PMPE     O31      OSL     -0.490000       15.9994           0   0.00000     -0.301140E-02
      3328 MEMB     28       PMPE     C31      CL       0.900000       12.0110           0   0.00000     -0.301140E-02
      3329 MEMB     28       PMPE     O32      OBL     -0.630000       15.9994           0   0.00000     -0.301140E-02
      3330 MEMB     28       PMPE     C32      CTL2    -0.220000       12.0110           0   0.00000     -0.301140E-02
      3331 MEMB     28       PMPE     H2X      HAL2     0.900000E-01   1.00800           0   0.00000     -0.301140E-02
      3332 MEMB     28       PMPE     H2Y      HAL2     0.900000E-01   1.00800           0   0.00000     -0.301140E-02
      3333 MEMB     28       PMPE     C23      CTL2    -0.180000       12.0110           0   0.00000     -0.301140E-02
      3334 MEMB     28       PMPE     H3R      HAL2     0.900000E-01   1.00800           0   0.00000     -0.301140E-02
      3335 MEMB     28       PMPE     H3S      HAL2     0.900000E-01   1.00800           0   0.00000     -0.301140E-02
      3336 MEMB     28       PMPE     C24      CTL2    -0.180000       12.0110           0   0.00000     -0.301140E-02
      3337 MEMB     28       PMPE     H4R      HAL2     0.900000E-01   1.00800           0   0.00000     -0.301140E-02
      3338 MEMB     28       PMPE     H4S      HAL2     0.900000E-01   1.00800           0   0.00000     -0.301140E-02
      3339 MEMB     28       PMPE     C25      CTL2    -0.180000       12.0110           0   0.00000     -0.301140E-02
      3340 MEMB     28       PMPE     H5R      HAL2     0.900000E-01   1.00800           0   0.00000     -0.301140E-02
      3341 MEMB     28       PMPE     H5S      HAL2     0.900000E-01   1.00800           0   0.00000     -0.301140E-02
      3342 MEMB     28       PMPE     C26      CTL2    -0.180000       12.0110           0   0.00000     -0.301140E-02
      3343 MEMB     28       PMPE     H6R      HAL2     0.900000E-01   1.00800           0   0.00000     -0.301140E-02
      3344 MEMB     28       PMPE     H6S      HAL2     0.900000E-01   1.00800           0   0.00000     -0.301140E-02
      3345 MEMB     28       PMPE     C27      CTL2    -0.180000       12.0110           0   0.00000     -0.301140E-02
      3346 MEMB     28       PMPE     H7R      HAL2     0.900000E-01   1.00800           0   0.00000     -0.301140E-02
      3347 MEMB     28       PMPE     H7S      HAL2     0.900000E-01   1.00800           0   0.00000     -0.301140E-02
      3348 MEMB     28       PMPE     C28      CTL2    -0.180000       12.0110           0   0.00000     -0.301140E-02
      3349 MEMB     28       PMPE     H8R      HAL2     0.900000E-01   1.00800           0   0.00000     -0.301140E-02
      3350 MEMB     28       PMPE     H8S      HAL2     0.900000E-01   1.00800           0   0.00000     -0.301140E-02
      3351 MEMB     28       PMPE     C29      CG3RC1  -0.900000E-01   12.0110           0   0.00000     -0.301140E-02
      3352 MEMB     28       PMPE     H9R      HGA1     0.900000E-01   1.00800           0   0.00000     -0.301140E-02
      3353 MEMB     28       PMPE     C217     CG3C31  -0.180000       12.0110           0   0.00000     -0.301140E-02
      3354 MEMB     28       PMPE     H17R     HGA2     0.900000E-01   1.00800           0   0.00000     -0.301140E-02
      3355 MEMB     28       PMPE     H17S     HGA2     0.900000E-01   1.00800           0   0.00000     -0.301140E-02
      3356 MEMB     28       PMPE     C210     CG3RC1  -0.900000E-01   12.0110           0   0.00000     -0.301140E-02
      3357 MEMB     28       PMPE     H10R     HGA1     0.900000E-01   1.00800           0   0.00000     -0.301140E-02
      3358 MEMB     28       PMPE     C211     CTL2    -0.180000       12.0110           0   0.00000     -0.301140E-02
      3359 MEMB     28       PMPE     H11R     HAL2     0.900000E-01   1.00800           0   0.00000     -0.301140E-02
      3360 MEMB     28       PMPE     H11S     HAL2     0.900000E-01   1.00800           0   0.00000     -0.301140E-02
      3361 MEMB     28       PMPE     C212     CTL2    -0.180000       12.0110           0   0.00000     -0.301140E-02
      3362 MEMB     28       PMPE     H12R     HAL2     0.900000E-01   1.00800           0   0.00000     -0.301140E-02
      3363 MEMB     28       PMPE     H12S     HAL2     0.900000E-01   1.00800           0   0.00000     -0.301140E-02
      3364 MEMB     28       PMPE     C213     CTL2    -0.180000       12.0110           0   0.00000     -0.301140E-02
      3365 MEMB     28       PMPE     H13R     HAL2     0.900000E-01   1.00800           0   0.00000     -0.301140E-02
      3366 MEMB     28       PMPE     H13S     HAL2     0.900000E-01   1.00800           0   0.00000     -0.301140E-02
      3367 MEMB     28       PMPE     C214     CTL2    -0.180000       12.0110           0   0.00000     -0.301140E-02
      3368 MEMB     28       PMPE     H14R     HAL2     0.900000E-01   1.00800           0   0.00000     -0.301140E-02
      3369 MEMB     28       PMPE     H14S     HAL2     0.900000E-01   1.00800           0   0.00000     -0.301140E-02
      3370 MEMB     28       PMPE     C215     CTL2    -0.180000       12.0110           0   0.00000     -0.301140E-02
      3371 MEMB     28       PMPE     H15R     HAL2     0.900000E-01   1.00800           0   0.00000     -0.301140E-02
      3372 MEMB     28       PMPE     H15S     HAL2     0.900000E-01   1.00800           0   0.00000     -0.301140E-02
      3373 MEMB     28       PMPE     C216     CTL3    -0.270000       12.0110           0   0.00000     -0.301140E-02
      3374 MEMB     28       PMPE     H16R     HAL3     0.900000E-01   1.00800           0   0.00000     -0.301140E-02
      3375 MEMB     28       PMPE     H16S     HAL3     0.900000E-01   1.00800           0   0.00000     -0.301140E-02
      3376 MEMB     28       PMPE     H16T     HAL3     0.900000E-01   1.00800           0   0.00000     -0.301140E-02
      3377 MEMB     28       PMPE     C33      CTL2    -0.180000       12.0110           0   0.00000     -0.301140E-02
      3378 MEMB     28       PMPE     H3X      HAL2     0.900000E-01   1.00800           0   0.00000     -0.301140E-02
      3379 MEMB     28       PMPE     H3Y      HAL2     0.900000E-01   1.00800           0   0.00000     -0.301140E-02
      3380 MEMB     28       PMPE     C34      CTL2    -0.180000       12.0110           0   0.00000     -0.301140E-02
      3381 MEMB     28       PMPE     H4X      HAL2     0.900000E-01   1.00800           0   0.00000     -0.301140E-02
      3382 MEMB     28       PMPE     H4Y      HAL2     0.900000E-01   1.00800           0   0.00000     -0.301140E-02
      3383 MEMB     28       PMPE     C35      CTL2    -0.180000       12.0110           0   0.00000     -0.301140E-02
      3384 MEMB     28       PMPE     H5X      HAL2     0.900000E-01   1.00800           0   0.00000     -0.301140E-02
      3385 MEMB     28       PMPE     H5Y      HAL2     0.900000E-01   1.00800           0   0.00000     -0.301140E-02
      3386 MEMB     28       PMPE     C36      CTL2    -0.180000       12.0110           0   0.00000     -0.301140E-02
      3387 MEMB     28       PMPE     H6X      HAL2     0.900000E-01   1.00800           0   0.00000     -0.301140E-02
      3388 MEMB     28       PMPE     H6Y      HAL2     0.900000E-01   1.00800           0   0.00000     -0.301140E-02
      3389 MEMB     28       PMPE     C37      CTL2    -0.180000       12.0110           0   0.00000     -0.301140E-02
      3390 MEMB     28       PMPE     H7X      HAL2     0.900000E-01   1.00800           0   0.00000     -0.301140E-02
      3391 MEMB     28       PMPE     H7Y      HAL2     0.900000E-01   1.00800           0   0.00000     -0.301140E-02
      3392 MEMB     28       PMPE     C38      CTL2    -0.180000       12.0110           0   0.00000     -0.301140E-02
      3393 MEMB     28       PMPE     H8X      HAL2     0.900000E-01   1.00800           0   0.00000     -0.301140E-02
      3394 MEMB     28       PMPE     H8Y      HAL2     0.900000E-01   1.00800           0   0.00000     -0.301140E-02
      3395 MEMB     28       PMPE     C39      CTL2    -0.180000       12.0110           0   0.00000     -0.301140E-02
      3396 MEMB     28       PMPE     H9X      HAL2     0.900000E-01   1.00800           0   0.00000     -0.301140E-02
      3397 MEMB     28       PMPE     H9Y      HAL2     0.900000E-01   1.00800           0   0.00000     -0.301140E-02
      3398 MEMB     28       PMPE     C310     CTL2    -0.180000       12.0110           0   0.00000     -0.301140E-02
      3399 MEMB     28       PMPE     H10X     HAL2     0.900000E-01   1.00800           0   0.00000     -0.301140E-02
      3400 MEMB     28       PMPE     H10Y     HAL2     0.900000E-01   1.00800           0   0.00000     -0.301140E-02
      3401 MEMB     28       PMPE     C311     CTL2    -0.180000       12.0110           0   0.00000     -0.301140E-02
      3402 MEMB     28       PMPE     H11X     HAL2     0.900000E-01   1.00800           0   0.00000     -0.301140E-02
      3403 MEMB     28       PMPE     H11Y     HAL2     0.900000E-01   1.00800           0   0.00000     -0.301140E-02
      3404 MEMB     28       PMPE     C312     CTL2    -0.180000       12.0110           0   0.00000     -0.301140E-02
      3405 MEMB     28       PMPE     H12X     HAL2     0.900000E-01   1.00800           0   0.00000     -0.301140E-02
      3406 MEMB     28       PMPE     H12Y     HAL2     0.900000E-01   1.00800           0   0.00000     -0.301140E-02
      3407 MEMB     28       PMPE     C313     CTL2    -0.180000       12.0110           0   0.00000     -0.301140E-02
      3408 MEMB     28       PMPE     H13X     HAL2     0.900000E-01   1.00800           0   0.00000     -0.301140E-02
      3409 MEMB     28       PMPE     H13Y     HAL2     0.900000E-01   1.00800           0   0.00000     -0.301140E-02
      3410 MEMB     28       PMPE     C314     CTL2    -0.180000       12.0110           0   0.00000     -0.301140E-02
      3411 MEMB     28       PMPE     H14X     HAL2     0.900000E-01   1.00800           0   0.00000     -0.301140E-02
      3412 MEMB     28       PMPE     H14Y     HAL2     0.900000E-01   1.00800           0   0.00000     -0.301140E-02
      3413 MEMB     28       PMPE     C315     CTL2    -0.180000       12.0110           0   0.00000     -0.301140E-02
      3414 MEMB     28       PMPE     H15X     HAL2     0.900000E-01   1.00800           0   0.00000     -0.301140E-02
      3415 MEMB     28       PMPE     H15Y     HAL2     0.900000E-01   1.00800           0   0.00000     -0.301140E-02
      3416 MEMB     28       PMPE     C316     CTL3    -0.270000       12.0110           0   0.00000     -0.301140E-02
      3417 MEMB     28       PMPE     H16X     HAL3     0.900000E-01   1.00800           0   0.00000     -0.301140E-02
      3418 MEMB     28       PMPE     H16Y     HAL3     0.900000E-01   1.00800           0   0.00000     -0.301140E-02
      3419 MEMB     28       PMPE     H16Z     HAL3     0.900000E-01   1.00800           0   0.00000     -0.301140E-02
      3420 MEMB     29       PMPG     C13      CTL2     0.500000E-01   12.0110           0   0.00000     -0.301140E-02
      3421 MEMB     29       PMPG     H13A     HAL2     0.900000E-01   1.00800           0   0.00000     -0.301140E-02
      3422 MEMB     29       PMPG     H13B     HAL2     0.900000E-01   1.00800           0   0.00000     -0.301140E-02
      3423 MEMB     29       PMPG     OC3      OHL     -0.660000       15.9994           0   0.00000     -0.301140E-02
      3424 MEMB     29       PMPG     HO3      HOL      0.430000       1.00800           0   0.00000     -0.301140E-02
      3425 MEMB     29       PMPG     C12      CTL1     0.140000       12.0110           0   0.00000     -0.301140E-02
      3426 MEMB     29       PMPG     H12A     HAL1     0.900000E-01   1.00800           0   0.00000     -0.301140E-02
      3427 MEMB     29       PMPG     OC2      OHL     -0.660000       15.9994           0   0.00000     -0.301140E-02
      3428 MEMB     29       PMPG     HO2      HOL      0.430000       1.00800           0   0.00000     -0.301140E-02
      3429 MEMB     29       PMPG     C11      CTL2    -0.800000E-01   12.0110           0   0.00000     -0.301140E-02
      3430 MEMB     29       PMPG     H11A     HAL2     0.900000E-01   1.00800           0   0.00000     -0.301140E-02
      3431 MEMB     29       PMPG     H11B     HAL2     0.900000E-01   1.00800           0   0.00000     -0.301140E-02
      3432 MEMB     29       PMPG     P        PL        1.50000       30.9740           0   0.00000     -0.301140E-02
      3433 MEMB     29       PMPG     O13      O2L     -0.780000       15.9994           0   0.00000     -0.301140E-02
      3434 MEMB     29       PMPG     O14      O2L     -0.780000       15.9994           0   0.00000     -0.301140E-02
      3435 MEMB     29       PMPG     O11      OSLP    -0.570000       15.9994           0   0.00000     -0.301140E-02
      3436 MEMB     29       PMPG     O12      OSLP    -0.570000       15.9994           0   0.00000     -0.301140E-02
      3437 MEMB     29       PMPG     C1       CTL2    -0.800000E-01   12.0110           0   0.00000     -0.301140E-02
      3438 MEMB     29       PMPG     HA       HAL2     0.900000E-01   1.00800           0   0.00000     -0.301140E-02
      3439 MEMB     29       PMPG     HB       HAL2     0.900000E-01   1.00800           0   0.00000     -0.301140E-02
      3440 MEMB     29       PMPG     C2       CTL1     0.170000       12.0110           0   0.00000     -0.301140E-02
      3441 MEMB     29       PMPG     HS       HAL1     0.900000E-01   1.00800           0   0.00000     -0.301140E-02
      3442 MEMB     29       PMPG     O21      OSL     -0.490000       15.9994           0   0.00000     -0.301140E-02
      3443 MEMB     29       PMPG     C21      CL       0.900000       12.0110           0   0.00000     -0.301140E-02
      3444 MEMB     29       PMPG     O22      OBL     -0.630000       15.9994           0   0.00000     -0.301140E-02
      3445 MEMB     29       PMPG     C22      CTL2    -0.220000       12.0110           0   0.00000     -0.301140E-02
      3446 MEMB     29       PMPG     H2R      HAL2     0.900000E-01   1.00800           0   0.00000     -0.301140E-02
      3447 MEMB     29       PMPG     H2S      HAL2     0.900000E-01   1.00800           0   0.00000     -0.301140E-02
      3448 MEMB     29       PMPG     C3       CTL2     0.800000E-01   12.0110           0   0.00000     -0.301140E-02
      3449 MEMB     29       PMPG     HX       HAL2     0.900000E-01   1.00800           0   0.00000     -0.301140E-02
      3450 MEMB     29       PMPG     HY       HAL2     0.900000E-01   1.00800           0   0.00000     -0.301140E-02
      3451 MEMB     29       PMPG     O31      OSL     -0.490000       15.9994           0   0.00000     -0.301140E-02
      3452 MEMB     29       PMPG     C31      CL       0.900000       12.0110           0   0.00000     -0.301140E-02
      3453 MEMB     29       PMPG     O32      OBL     -0.630000       15.9994           0   0.00000     -0.301140E-02
      3454 MEMB     29       PMPG     C32      CTL2    -0.220000       12.0110           0   0.00000     -0.301140E-02
      3455 MEMB     29       PMPG     H2X      HAL2     0.900000E-01   1.00800           0   0.00000     -0.301140E-02
      3456 MEMB     29       PMPG     H2Y      HAL2     0.900000E-01   1.00800           0   0.00000     -0.301140E-02
      3457 MEMB     29       PMPG     C23      CTL2    -0.180000       12.0110           0   0.00000     -0.301140E-02
      3458 MEMB     29       PMPG     H3R      HAL2     0.900000E-01   1.00800           0   0.00000     -0.301140E-02
      3459 MEMB     29       PMPG     H3S      HAL2     0.900000E-01   1.00800           0   0.00000     -0.301140E-02
      3460 MEMB     29       PMPG     C24      CTL2    -0.180000       12.0110           0   0.00000     -0.301140E-02
      3461 MEMB     29       PMPG     H4R      HAL2     0.900000E-01   1.00800           0   0.00000     -0.301140E-02
      3462 MEMB     29       PMPG     H4S      HAL2     0.900000E-01   1.00800           0   0.00000     -0.301140E-02
      3463 MEMB     29       PMPG     C25      CTL2    -0.180000       12.0110           0   0.00000     -0.301140E-02
      3464 MEMB     29       PMPG     H5R      HAL2     0.900000E-01   1.00800           0   0.00000     -0.301140E-02
      3465 MEMB     29       PMPG     H5S      HAL2     0.900000E-01   1.00800           0   0.00000     -0.301140E-02
      3466 MEMB     29       PMPG     C26      CTL2    -0.180000       12.0110           0   0.00000     -0.301140E-02
      3467 MEMB     29       PMPG     H6R      HAL2     0.900000E-01   1.00800           0   0.00000     -0.301140E-02
      3468 MEMB     29       PMPG     H6S      HAL2     0.900000E-01   1.00800           0   0.00000     -0.301140E-02
      3469 MEMB     29       PMPG     C27      CTL2    -0.180000       12.0110           0   0.00000     -0.301140E-02
      3470 MEMB     29       PMPG     H7R      HAL2     0.900000E-01   1.00800           0   0.00000     -0.301140E-02
      3471 MEMB     29       PMPG     H7S      HAL2     0.900000E-01   1.00800           0   0.00000     -0.301140E-02
      3472 MEMB     29       PMPG     C28      CTL2    -0.180000       12.0110           0   0.00000     -0.301140E-02
      3473 MEMB     29       PMPG     H8R      HAL2     0.900000E-01   1.00800           0   0.00000     -0.301140E-02
      3474 MEMB     29       PMPG     H8S      HAL2     0.900000E-01   1.00800           0   0.00000     -0.301140E-02
      3475 MEMB     29       PMPG     C29      CG3RC1  -0.900000E-01   12.0110           0   0.00000     -0.301140E-02
      3476 MEMB     29       PMPG     H9R      HGA1     0.900000E-01   1.00800           0   0.00000     -0.301140E-02
      3477 MEMB     29       PMPG     C217     CG3C31  -0.180000       12.0110           0   0.00000     -0.301140E-02
      3478 MEMB     29       PMPG     H17R     HGA2     0.900000E-01   1.00800           0   0.00000     -0.301140E-02
      3479 MEMB     29       PMPG     H17S     HGA2     0.900000E-01   1.00800           0   0.00000     -0.301140E-02
      3480 MEMB     29       PMPG     C210     CG3RC1  -0.900000E-01   12.0110           0   0.00000     -0.301140E-02
      3481 MEMB     29       PMPG     H10R     HGA1     0.900000E-01   1.00800           0   0.00000     -0.301140E-02
      3482 MEMB     29       PMPG     C211     CTL2    -0.180000       12.0110           0   0.00000     -0.301140E-02
      3483 MEMB     29       PMPG     H11R     HAL2     0.900000E-01   1.00800           0   0.00000     -0.301140E-02
      3484 MEMB     29       PMPG     H11S     HAL2     0.900000E-01   1.00800           0   0.00000     -0.301140E-02
      3485 MEMB     29       PMPG     C212     CTL2    -0.180000       12.0110           0   0.00000     -0.301140E-02
      3486 MEMB     29       PMPG     H12R     HAL2     0.900000E-01   1.00800           0   0.00000     -0.301140E-02
      3487 MEMB     29       PMPG     H12S     HAL2     0.900000E-01   1.00800           0   0.00000     -0.301140E-02
      3488 MEMB     29       PMPG     C213     CTL2    -0.180000       12.0110           0   0.00000     -0.301140E-02
      3489 MEMB     29       PMPG     H13R     HAL2     0.900000E-01   1.00800           0   0.00000     -0.301140E-02
      3490 MEMB     29       PMPG     H13S     HAL2     0.900000E-01   1.00800           0   0.00000     -0.301140E-02
      3491 MEMB     29       PMPG     C214     CTL2    -0.180000       12.0110           0   0.00000     -0.301140E-02
      3492 MEMB     29       PMPG     H14R     HAL2     0.900000E-01   1.00800           0   0.00000     -0.301140E-02
      3493 MEMB     29       PMPG     H14S     HAL2     0.900000E-01   1.00800           0   0.00000     -0.301140E-02
      3494 MEMB     29       PMPG     C215     CTL2    -0.180000       12.0110           0   0.00000     -0.301140E-02
      3495 MEMB     29       PMPG     H15R     HAL2     0.900000E-01   1.00800           0   0.00000     -0.301140E-02
      3496 MEMB     29       PMPG     H15S     HAL2     0.900000E-01   1.00800           0   0.00000     -0.301140E-02
      3497 MEMB     29       PMPG     C216     CTL3    -0.270000       12.0110           0   0.00000     -0.301140E-02
      3498 MEMB     29       PMPG     H16R     HAL3     0.900000E-01   1.00800           0   0.00000     -0.301140E-02
      3499 MEMB     29       PMPG     H16S     HAL3     0.900000E-01   1.00800           0   0.00000     -0.301140E-02
      3500 MEMB     29       PMPG     H16T     HAL3     0.900000E-01   1.00800           0   0.00000     -0.301140E-02
      3501 MEMB     29       PMPG     C33      CTL2    -0.180000       12.0110           0   0.00000     -0.301140E-02
      3502 MEMB     29       PMPG     H3X      HAL2     0.900000E-01   1.00800           0   0.00000     -0.301140E-02
      3503 MEMB     29       PMPG     H3Y      HAL2     0.900000E-01   1.00800           0   0.00000     -0.301140E-02
      3504 MEMB     29       PMPG     C34      CTL2    -0.180000       12.0110           0   0.00000     -0.301140E-02
      3505 MEMB     29       PMPG     H4X      HAL2     0.900000E-01   1.00800           0   0.00000     -0.301140E-02
      3506 MEMB     29       PMPG     H4Y      HAL2     0.900000E-01   1.00800           0   0.00000     -0.301140E-02
      3507 MEMB     29       PMPG     C35      CTL2    -0.180000       12.0110           0   0.00000     -0.301140E-02
      3508 MEMB     29       PMPG     H5X      HAL2     0.900000E-01   1.00800           0   0.00000     -0.301140E-02
      3509 MEMB     29       PMPG     H5Y      HAL2     0.900000E-01   1.00800           0   0.00000     -0.301140E-02
      3510 MEMB     29       PMPG     C36      CTL2    -0.180000       12.0110           0   0.00000     -0.301140E-02
      3511 MEMB     29       PMPG     H6X      HAL2     0.900000E-01   1.00800           0   0.00000     -0.301140E-02
      3512 MEMB     29       PMPG     H6Y      HAL2     0.900000E-01   1.00800           0   0.00000     -0.301140E-02
      3513 MEMB     29       PMPG     C37      CTL2    -0.180000       12.0110           0   0.00000     -0.301140E-02
      3514 MEMB     29       PMPG     H7X      HAL2     0.900000E-01   1.00800           0   0.00000     -0.301140E-02
      3515 MEMB     29       PMPG     H7Y      HAL2     0.900000E-01   1.00800           0   0.00000     -0.301140E-02
      3516 MEMB     29       PMPG     C38      CTL2    -0.180000       12.0110           0   0.00000     -0.301140E-02
      3517 MEMB     29       PMPG     H8X      HAL2     0.900000E-01   1.00800           0   0.00000     -0.301140E-02
      3518 MEMB     29       PMPG     H8Y      HAL2     0.900000E-01   1.00800           0   0.00000     -0.301140E-02
      3519 MEMB     29       PMPG     C39      CTL2    -0.180000       12.0110           0   0.00000     -0.301140E-02
      3520 MEMB     29       PMPG     H9X      HAL2     0.900000E-01   1.00800           0   0.00000     -0.301140E-02
      3521 MEMB     29       PMPG     H9Y      HAL2     0.900000E-01   1.00800           0   0.00000     -0.301140E-02
      3522 MEMB     29       PMPG     C310     CTL2    -0.180000       12.0110           0   0.00000     -0.301140E-02
      3523 MEMB     29       PMPG     H10X     HAL2     0.900000E-01   1.00800           0   0.00000     -0.301140E-02
      3524 MEMB     29       PMPG     H10Y     HAL2     0.900000E-01   1.00800           0   0.00000     -0.301140E-02
      3525 MEMB     29       PMPG     C311     CTL2    -0.180000       12.0110           0   0.00000     -0.301140E-02
      3526 MEMB     29       PMPG     H11X     HAL2     0.900000E-01   1.00800           0   0.00000     -0.301140E-02
      3527 MEMB     29       PMPG     H11Y     HAL2     0.900000E-01   1.00800           0   0.00000     -0.301140E-02
      3528 MEMB     29       PMPG     C312     CTL2    -0.180000       12.0110           0   0.00000     -0.301140E-02
      3529 MEMB     29       PMPG     H12X     HAL2     0.900000E-01   1.00800           0   0.00000     -0.301140E-02
      3530 MEMB     29       PMPG     H12Y     HAL2     0.900000E-01   1.00800           0   0.00000     -0.301140E-02
      3531 MEMB     29       PMPG     C313     CTL2    -0.180000       12.0110           0   0.00000     -0.301140E-02
      3532 MEMB     29       PMPG     H13X     HAL2     0.900000E-01   1.00800           0   0.00000     -0.301140E-02
      3533 MEMB     29       PMPG     H13Y     HAL2     0.900000E-01   1.00800           0   0.00000     -0.301140E-02
      3534 MEMB     29       PMPG     C314     CTL2    -0.180000       12.0110           0   0.00000     -0.301140E-02
      3535 MEMB     29       PMPG     H14X     HAL2     0.900000E-01   1.00800           0   0.00000     -0.301140E-02
      3536 MEMB     29       PMPG     H14Y     HAL2     0.900000E-01   1.00800           0   0.00000     -0.301140E-02
      3537 MEMB     29       PMPG     C315     CTL2    -0.180000       12.0110           0   0.00000     -0.301140E-02
      3538 MEMB     29       PMPG     H15X     HAL2     0.900000E-01   1.00800           0   0.00000     -0.301140E-02
      3539 MEMB     29       PMPG     H15Y     HAL2     0.900000E-01   1.00800           0   0.00000     -0.301140E-02
      3540 MEMB     29       PMPG     C316     CTL3    -0.270000       12.0110           0   0.00000     -0.301140E-02
      3541 MEMB     29       PMPG     H16X     HAL3     0.900000E-01   1.00800           0   0.00000     -0.301140E-02
      3542 MEMB     29       PMPG     H16Y     HAL3     0.900000E-01   1.00800           0   0.00000     -0.301140E-02
      3543 MEMB     29       PMPG     H16Z     HAL3     0.900000E-01   1.00800           0   0.00000     -0.301140E-02
      3544 MEMB     30       PMPE     N        NH3L    -0.300000       14.0070           0   0.00000     -0.301140E-02
      3545 MEMB     30       PMPE     HN1      HCL      0.330000       1.00800           0   0.00000     -0.301140E-02
      3546 MEMB     30       PMPE     HN2      HCL      0.330000       1.00800           0   0.00000     -0.301140E-02
      3547 MEMB     30       PMPE     HN3      HCL      0.330000       1.00800           0   0.00000     -0.301140E-02
      3548 MEMB     30       PMPE     C12      CTL2     0.130000       12.0110           0   0.00000     -0.301140E-02
      3549 MEMB     30       PMPE     H12A     HAL2     0.900000E-01   1.00800           0   0.00000     -0.301140E-02
      3550 MEMB     30       PMPE     H12B     HAL2     0.900000E-01   1.00800           0   0.00000     -0.301140E-02
      3551 MEMB     30       PMPE     C11      CTL2    -0.800000E-01   12.0110           0   0.00000     -0.301140E-02
      3552 MEMB     30       PMPE     H11A     HAL2     0.900000E-01   1.00800           0   0.00000     -0.301140E-02
      3553 MEMB     30       PMPE     H11B     HAL2     0.900000E-01   1.00800           0   0.00000     -0.301140E-02
      3554 MEMB     30       PMPE     P        PL        1.50000       30.9740           0   0.00000     -0.301140E-02
      3555 MEMB     30       PMPE     O13      O2L     -0.780000       15.9994           0   0.00000     -0.301140E-02
      3556 MEMB     30       PMPE     O14      O2L     -0.780000       15.9994           0   0.00000     -0.301140E-02
      3557 MEMB     30       PMPE     O11      OSLP    -0.570000       15.9994           0   0.00000     -0.301140E-02
      3558 MEMB     30       PMPE     O12      OSLP    -0.570000       15.9994           0   0.00000     -0.301140E-02
      3559 MEMB     30       PMPE     C1       CTL2    -0.800000E-01   12.0110           0   0.00000     -0.301140E-02
      3560 MEMB     30       PMPE     HA       HAL2     0.900000E-01   1.00800           0   0.00000     -0.301140E-02
      3561 MEMB     30       PMPE     HB       HAL2     0.900000E-01   1.00800           0   0.00000     -0.301140E-02
      3562 MEMB     30       PMPE     C2       CTL1     0.170000       12.0110           0   0.00000     -0.301140E-02
      3563 MEMB     30       PMPE     HS       HAL1     0.900000E-01   1.00800           0   0.00000     -0.301140E-02
      3564 MEMB     30       PMPE     O21      OSL     -0.490000       15.9994           0   0.00000     -0.301140E-02
      3565 MEMB     30       PMPE     C21      CL       0.900000       12.0110           0   0.00000     -0.301140E-02
      3566 MEMB     30       PMPE     O22      OBL     -0.630000       15.9994           0   0.00000     -0.301140E-02
      3567 MEMB     30       PMPE     C22      CTL2    -0.220000       12.0110           0   0.00000     -0.301140E-02
      3568 MEMB     30       PMPE     H2R      HAL2     0.900000E-01   1.00800           0   0.00000     -0.301140E-02
      3569 MEMB     30       PMPE     H2S      HAL2     0.900000E-01   1.00800           0   0.00000     -0.301140E-02
      3570 MEMB     30       PMPE     C3       CTL2     0.800000E-01   12.0110           0   0.00000     -0.301140E-02
      3571 MEMB     30       PMPE     HX       HAL2     0.900000E-01   1.00800           0   0.00000     -0.301140E-02
      3572 MEMB     30       PMPE     HY       HAL2     0.900000E-01   1.00800           0   0.00000     -0.301140E-02
      3573 MEMB     30       PMPE     O31      OSL     -0.490000       15.9994           0   0.00000     -0.301140E-02
      3574 MEMB     30       PMPE     C31      CL       0.900000       12.0110           0   0.00000     -0.301140E-02
      3575 MEMB     30       PMPE     O32      OBL     -0.630000       15.9994           0   0.00000     -0.301140E-02
      3576 MEMB     30       PMPE     C32      CTL2    -0.220000       12.0110           0   0.00000     -0.301140E-02
      3577 MEMB     30       PMPE     H2X      HAL2     0.900000E-01   1.00800           0   0.00000     -0.301140E-02
      3578 MEMB     30       PMPE     H2Y      HAL2     0.900000E-01   1.00800           0   0.00000     -0.301140E-02
      3579 MEMB     30       PMPE     C23      CTL2    -0.180000       12.0110           0   0.00000     -0.301140E-02
      3580 MEMB     30       PMPE     H3R      HAL2     0.900000E-01   1.00800           0   0.00000     -0.301140E-02
      3581 MEMB     30       PMPE     H3S      HAL2     0.900000E-01   1.00800           0   0.00000     -0.301140E-02
      3582 MEMB     30       PMPE     C24      CTL2    -0.180000       12.0110           0   0.00000     -0.301140E-02
      3583 MEMB     30       PMPE     H4R      HAL2     0.900000E-01   1.00800           0   0.00000     -0.301140E-02
      3584 MEMB     30       PMPE     H4S      HAL2     0.900000E-01   1.00800           0   0.00000     -0.301140E-02
      3585 MEMB     30       PMPE     C25      CTL2    -0.180000       12.0110           0   0.00000     -0.301140E-02
      3586 MEMB     30       PMPE     H5R      HAL2     0.900000E-01   1.00800           0   0.00000     -0.301140E-02
      3587 MEMB     30       PMPE     H5S      HAL2     0.900000E-01   1.00800           0   0.00000     -0.301140E-02
      3588 MEMB     30       PMPE     C26      CTL2    -0.180000       12.0110           0   0.00000     -0.301140E-02
      3589 MEMB     30       PMPE     H6R      HAL2     0.900000E-01   1.00800           0   0.00000     -0.301140E-02
      3590 MEMB     30       PMPE     H6S      HAL2     0.900000E-01   1.00800           0   0.00000     -0.301140E-02
      3591 MEMB     30       PMPE     C27      CTL2    -0.180000       12.0110           0   0.00000     -0.301140E-02
      3592 MEMB     30       PMPE     H7R      HAL2     0.900000E-01   1.00800           0   0.00000     -0.301140E-02
      3593 MEMB     30       PMPE     H7S      HAL2     0.900000E-01   1.00800           0   0.00000     -0.301140E-02
      3594 MEMB     30       PMPE     C28      CTL2    -0.180000       12.0110           0   0.00000     -0.301140E-02
      3595 MEMB     30       PMPE     H8R      HAL2     0.900000E-01   1.00800           0   0.00000     -0.301140E-02
      3596 MEMB     30       PMPE     H8S      HAL2     0.900000E-01   1.00800           0   0.00000     -0.301140E-02
      3597 MEMB     30       PMPE     C29      CG3RC1  -0.900000E-01   12.0110           0   0.00000     -0.301140E-02
      3598 MEMB     30       PMPE     H9R      HGA1     0.900000E-01   1.00800           0   0.00000     -0.301140E-02
      3599 MEMB     30       PMPE     C217     CG3C31  -0.180000       12.0110           0   0.00000     -0.301140E-02
      3600 MEMB     30       PMPE     H17R     HGA2     0.900000E-01   1.00800           0   0.00000     -0.301140E-02
      3601 MEMB     30       PMPE     H17S     HGA2     0.900000E-01   1.00800           0   0.00000     -0.301140E-02
      3602 MEMB     30       PMPE     C210     CG3RC1  -0.900000E-01   12.0110           0   0.00000     -0.301140E-02
      3603 MEMB     30       PMPE     H10R     HGA1     0.900000E-01   1.00800           0   0.00000     -0.301140E-02
      3604 MEMB     30       PMPE     C211     CTL2    -0.180000       12.0110           0   0.00000     -0.301140E-02
      3605 MEMB     30       PMPE     H11R     HAL2     0.900000E-01   1.00800           0   0.00000     -0.301140E-02
      3606 MEMB     30       PMPE     H11S     HAL2     0.900000E-01   1.00800           0   0.00000     -0.301140E-02
      3607 MEMB     30       PMPE     C212     CTL2    -0.180000       12.0110           0   0.00000     -0.301140E-02
      3608 MEMB     30       PMPE     H12R     HAL2     0.900000E-01   1.00800           0   0.00000     -0.301140E-02
      3609 MEMB     30       PMPE     H12S     HAL2     0.900000E-01   1.00800           0   0.00000     -0.301140E-02
      3610 MEMB     30       PMPE     C213     CTL2    -0.180000       12.0110           0   0.00000     -0.301140E-02
      3611 MEMB     30       PMPE     H13R     HAL2     0.900000E-01   1.00800           0   0.00000     -0.301140E-02
      3612 MEMB     30       PMPE     H13S     HAL2     0.900000E-01   1.00800           0   0.00000     -0.301140E-02
      3613 MEMB     30       PMPE     C214     CTL2    -0.180000       12.0110           0   0.00000     -0.301140E-02
      3614 MEMB     30       PMPE     H14R     HAL2     0.900000E-01   1.00800           0   0.00000     -0.301140E-02
      3615 MEMB     30       PMPE     H14S     HAL2     0.900000E-01   1.00800           0   0.00000     -0.301140E-02
      3616 MEMB     30       PMPE     C215     CTL2    -0.180000       12.0110           0   0.00000     -0.301140E-02
      3617 MEMB     30       PMPE     H15R     HAL2     0.900000E-01   1.00800           0   0.00000     -0.301140E-02
      3618 MEMB     30       PMPE     H15S     HAL2     0.900000E-01   1.00800           0   0.00000     -0.301140E-02
      3619 MEMB     30       PMPE     C216     CTL3    -0.270000       12.0110           0   0.00000     -0.301140E-02
      3620 MEMB     30       PMPE     H16R     HAL3     0.900000E-01   1.00800           0   0.00000     -0.301140E-02
      3621 MEMB     30       PMPE     H16S     HAL3     0.900000E-01   1.00800           0   0.00000     -0.301140E-02
      3622 MEMB     30       PMPE     H16T     HAL3     0.900000E-01   1.00800           0   0.00000     -0.301140E-02
      3623 MEMB     30       PMPE     C33      CTL2    -0.180000       12.0110           0   0.00000     -0.301140E-02
      3624 MEMB     30       PMPE     H3X      HAL2     0.900000E-01   1.00800           0   0.00000     -0.301140E-02
      3625 MEMB     30       PMPE     H3Y      HAL2     0.900000E-01   1.00800           0   0.00000     -0.301140E-02
      3626 MEMB     30       PMPE     C34      CTL2    -0.180000       12.0110           0   0.00000     -0.301140E-02
      3627 MEMB     30       PMPE     H4X      HAL2     0.900000E-01   1.00800           0   0.00000     -0.301140E-02
      3628 MEMB     30       PMPE     H4Y      HAL2     0.900000E-01   1.00800           0   0.00000     -0.301140E-02
      3629 MEMB     30       PMPE     C35      CTL2    -0.180000       12.0110           0   0.00000     -0.301140E-02
      3630 MEMB     30       PMPE     H5X      HAL2     0.900000E-01   1.00800           0   0.00000     -0.301140E-02
      3631 MEMB     30       PMPE     H5Y      HAL2     0.900000E-01   1.00800           0   0.00000     -0.301140E-02
      3632 MEMB     30       PMPE     C36      CTL2    -0.180000       12.0110           0   0.00000     -0.301140E-02
      3633 MEMB     30       PMPE     H6X      HAL2     0.900000E-01   1.00800           0   0.00000     -0.301140E-02
      3634 MEMB     30       PMPE     H6Y      HAL2     0.900000E-01   1.00800           0   0.00000     -0.301140E-02
      3635 MEMB     30       PMPE     C37      CTL2    -0.180000       12.0110           0   0.00000     -0.301140E-02
      3636 MEMB     30       PMPE     H7X      HAL2     0.900000E-01   1.00800           0   0.00000     -0.301140E-02
      3637 MEMB     30       PMPE     H7Y      HAL2     0.900000E-01   1.00800           0   0.00000     -0.301140E-02
      3638 MEMB     30       PMPE     C38      CTL2    -0.180000       12.0110           0   0.00000     -0.301140E-02
      3639 MEMB     30       PMPE     H8X      HAL2     0.900000E-01   1.00800           0   0.00000     -0.301140E-02
      3640 MEMB     30       PMPE     H8Y      HAL2     0.900000E-01   1.00800           0   0.00000     -0.301140E-02
      3641 MEMB     30       PMPE     C39      CTL2    -0.180000       12.0110           0   0.00000     -0.301140E-02
      3642 MEMB     30       PMPE     H9X      HAL2     0.900000E-01   1.00800           0   0.00000     -0.301140E-02
      3643 MEMB     30       PMPE     H9Y      HAL2     0.900000E-01   1.00800           0   0.00000     -0.301140E-02
      3644 MEMB     30       PMPE     C310     CTL2    -0.180000       12.0110           0   0.00000     -0.301140E-02
      3645 MEMB     30       PMPE     H10X     HAL2     0.900000E-01   1.00800           0   0.00000     -0.301140E-02
      3646 MEMB     30       PMPE     H10Y     HAL2     0.900000E-01   1.00800           0   0.00000     -0.301140E-02
      3647 MEMB     30       PMPE     C311     CTL2    -0.180000       12.0110           0   0.00000     -0.301140E-02
      3648 MEMB     30       PMPE     H11X     HAL2     0.900000E-01   1.00800           0   0.00000     -0.301140E-02
      3649 MEMB     30       PMPE     H11Y     HAL2     0.900000E-01   1.00800           0   0.00000     -0.301140E-02
      3650 MEMB     30       PMPE     C312     CTL2    -0.180000       12.0110           0   0.00000     -0.301140E-02
      3651 MEMB     30       PMPE     H12X     HAL2     0.900000E-01   1.00800           0   0.00000     -0.301140E-02
      3652 MEMB     30       PMPE     H12Y     HAL2     0.900000E-01   1.00800           0   0.00000     -0.301140E-02
      3653 MEMB     30       PMPE     C313     CTL2    -0.180000       12.0110           0   0.00000     -0.301140E-02
      3654 MEMB     30       PMPE     H13X     HAL2     0.900000E-01   1.00800           0   0.00000     -0.301140E-02
      3655 MEMB     30       PMPE     H13Y     HAL2     0.900000E-01   1.00800           0   0.00000     -0.301140E-02
      3656 MEMB     30       PMPE     C314     CTL2    -0.180000       12.0110           0   0.00000     -0.301140E-02
      3657 MEMB     30       PMPE     H14X     HAL2     0.900000E-01   1.00800           0   0.00000     -0.301140E-02
      3658 MEMB     30       PMPE     H14Y     HAL2     0.900000E-01   1.00800           0   0.00000     -0.301140E-02
      3659 MEMB     30       PMPE     C315     CTL2    -0.180000       12.0110           0   0.00000     -0.301140E-02
      3660 MEMB     30       PMPE     H15X     HAL2     0.900000E-01   1.00800           0   0.00000     -0.301140E-02
      3661 MEMB     30       PMPE     H15Y     HAL2     0.900000E-01   1.00800           0   0.00000     -0.301140E-02
      3662 MEMB     30       PMPE     C316     CTL3    -0.270000       12.0110           0   0.00000     -0.301140E-02
      3663 MEMB     30       PMPE     H16X     HAL3     0.900000E-01   1.00800           0   0.00000     -0.301140E-02
      3664 MEMB     30       PMPE     H16Y     HAL3     0.900000E-01   1.00800           0   0.00000     -0.301140E-02
      3665 MEMB     30       PMPE     H16Z     HAL3     0.900000E-01   1.00800           0   0.00000     -0.301140E-02
      3666 MEMB     31       PYPG     C13      CTL2     0.500000E-01   12.0110           0   0.00000     -0.301140E-02
      3667 MEMB     31       PYPG     H13A     HAL2     0.900000E-01   1.00800           0   0.00000     -0.301140E-02
      3668 MEMB     31       PYPG     H13B     HAL2     0.900000E-01   1.00800           0   0.00000     -0.301140E-02
      3669 MEMB     31       PYPG     OC3      OHL     -0.660000       15.9994           0   0.00000     -0.301140E-02
      3670 MEMB     31       PYPG     HO3      HOL      0.430000       1.00800           0   0.00000     -0.301140E-02
      3671 MEMB     31       PYPG     C12      CTL1     0.140000       12.0110           0   0.00000     -0.301140E-02
      3672 MEMB     31       PYPG     H12A     HAL1     0.900000E-01   1.00800           0   0.00000     -0.301140E-02
      3673 MEMB     31       PYPG     OC2      OHL     -0.660000       15.9994           0   0.00000     -0.301140E-02
      3674 MEMB     31       PYPG     HO2      HOL      0.430000       1.00800           0   0.00000     -0.301140E-02
      3675 MEMB     31       PYPG     C11      CTL2    -0.800000E-01   12.0110           0   0.00000     -0.301140E-02
      3676 MEMB     31       PYPG     H11A     HAL2     0.900000E-01   1.00800           0   0.00000     -0.301140E-02
      3677 MEMB     31       PYPG     H11B     HAL2     0.900000E-01   1.00800           0   0.00000     -0.301140E-02
      3678 MEMB     31       PYPG     P        PL        1.50000       30.9740           0   0.00000     -0.301140E-02
      3679 MEMB     31       PYPG     O13      O2L     -0.780000       15.9994           0   0.00000     -0.301140E-02
      3680 MEMB     31       PYPG     O14      O2L     -0.780000       15.9994           0   0.00000     -0.301140E-02
      3681 MEMB     31       PYPG     O11      OSLP    -0.570000       15.9994           0   0.00000     -0.301140E-02
      3682 MEMB     31       PYPG     O12      OSLP    -0.570000       15.9994           0   0.00000     -0.301140E-02
      3683 MEMB     31       PYPG     C1       CTL2    -0.800000E-01   12.0110           0   0.00000     -0.301140E-02
      3684 MEMB     31       PYPG     HA       HAL2     0.900000E-01   1.00800           0   0.00000     -0.301140E-02
      3685 MEMB     31       PYPG     HB       HAL2     0.900000E-01   1.00800           0   0.00000     -0.301140E-02
      3686 MEMB     31       PYPG     C2       CTL1     0.170000       12.0110           0   0.00000     -0.301140E-02
      3687 MEMB     31       PYPG     HS       HAL1     0.900000E-01   1.00800           0   0.00000     -0.301140E-02
      3688 MEMB     31       PYPG     O21      OSL     -0.490000       15.9994           0   0.00000     -0.301140E-02
      3689 MEMB     31       PYPG     C21      CL       0.900000       12.0110           0   0.00000     -0.301140E-02
      3690 MEMB     31       PYPG     O22      OBL     -0.630000       15.9994           0   0.00000     -0.301140E-02
      3691 MEMB     31       PYPG     C22      CTL2    -0.220000       12.0110           0   0.00000     -0.301140E-02
      3692 MEMB     31       PYPG     H2R      HAL2     0.900000E-01   1.00800           0   0.00000     -0.301140E-02
      3693 MEMB     31       PYPG     H2S      HAL2     0.900000E-01   1.00800           0   0.00000     -0.301140E-02
      3694 MEMB     31       PYPG     C3       CTL2     0.800000E-01   12.0110           0   0.00000     -0.301140E-02
      3695 MEMB     31       PYPG     HX       HAL2     0.900000E-01   1.00800           0   0.00000     -0.301140E-02
      3696 MEMB     31       PYPG     HY       HAL2     0.900000E-01   1.00800           0   0.00000     -0.301140E-02
      3697 MEMB     31       PYPG     O31      OSL     -0.490000       15.9994           0   0.00000     -0.301140E-02
      3698 MEMB     31       PYPG     C31      CL       0.900000       12.0110           0   0.00000     -0.301140E-02
      3699 MEMB     31       PYPG     O32      OBL     -0.630000       15.9994           0   0.00000     -0.301140E-02
      3700 MEMB     31       PYPG     C32      CTL2    -0.220000       12.0110           0   0.00000     -0.301140E-02
      3701 MEMB     31       PYPG     H2X      HAL2     0.900000E-01   1.00800           0   0.00000     -0.301140E-02
      3702 MEMB     31       PYPG     H2Y      HAL2     0.900000E-01   1.00800           0   0.00000     -0.301140E-02
      3703 MEMB     31       PYPG     C23      CTL2    -0.180000       12.0110           0   0.00000     -0.301140E-02
      3704 MEMB     31       PYPG     H3R      HAL2     0.900000E-01   1.00800           0   0.00000     -0.301140E-02
      3705 MEMB     31       PYPG     H3S      HAL2     0.900000E-01   1.00800           0   0.00000     -0.301140E-02
      3706 MEMB     31       PYPG     C24      CTL2    -0.180000       12.0110           0   0.00000     -0.301140E-02
      3707 MEMB     31       PYPG     H4R      HAL2     0.900000E-01   1.00800           0   0.00000     -0.301140E-02
      3708 MEMB     31       PYPG     H4S      HAL2     0.900000E-01   1.00800           0   0.00000     -0.301140E-02
      3709 MEMB     31       PYPG     C25      CTL2    -0.180000       12.0110           0   0.00000     -0.301140E-02
      3710 MEMB     31       PYPG     H5R      HAL2     0.900000E-01   1.00800           0   0.00000     -0.301140E-02
      3711 MEMB     31       PYPG     H5S      HAL2     0.900000E-01   1.00800           0   0.00000     -0.301140E-02
      3712 MEMB     31       PYPG     C26      CTL2    -0.180000       12.0110           0   0.00000     -0.301140E-02
      3713 MEMB     31       PYPG     H6R      HAL2     0.900000E-01   1.00800           0   0.00000     -0.301140E-02
      3714 MEMB     31       PYPG     H6S      HAL2     0.900000E-01   1.00800           0   0.00000     -0.301140E-02
      3715 MEMB     31       PYPG     C27      CTL2    -0.180000       12.0110           0   0.00000     -0.301140E-02
      3716 MEMB     31       PYPG     H7R      HAL2     0.900000E-01   1.00800           0   0.00000     -0.301140E-02
      3717 MEMB     31       PYPG     H7S      HAL2     0.900000E-01   1.00800           0   0.00000     -0.301140E-02
      3718 MEMB     31       PYPG     C28      CTL2    -0.180000       12.0110           0   0.00000     -0.301140E-02
      3719 MEMB     31       PYPG     H8R      HAL2     0.900000E-01   1.00800           0   0.00000     -0.301140E-02
      3720 MEMB     31       PYPG     H8S      HAL2     0.900000E-01   1.00800           0   0.00000     -0.301140E-02
      3721 MEMB     31       PYPG     C29      CEL1    -0.150000       12.0110           0   0.00000     -0.301140E-02
      3722 MEMB     31       PYPG     H9R      HEL1     0.150000       1.00800           0   0.00000     -0.301140E-02
      3723 MEMB     31       PYPG     C210     CEL1    -0.150000       12.0110           0   0.00000     -0.301140E-02
      3724 MEMB     31       PYPG     H10R     HEL1     0.150000       1.00800           0   0.00000     -0.301140E-02
      3725 MEMB     31       PYPG     C211     CTL2    -0.180000       12.0110           0   0.00000     -0.301140E-02
      3726 MEMB     31       PYPG     H11R     HAL2     0.900000E-01   1.00800           0   0.00000     -0.301140E-02
      3727 MEMB     31       PYPG     H11S     HAL2     0.900000E-01   1.00800           0   0.00000     -0.301140E-02
      3728 MEMB     31       PYPG     C212     CTL2    -0.180000       12.0110           0   0.00000     -0.301140E-02
      3729 MEMB     31       PYPG     H12R     HAL2     0.900000E-01   1.00800           0   0.00000     -0.301140E-02
      3730 MEMB     31       PYPG     H12S     HAL2     0.900000E-01   1.00800           0   0.00000     -0.301140E-02
      3731 MEMB     31       PYPG     C213     CTL2    -0.180000       12.0110           0   0.00000     -0.301140E-02
      3732 MEMB     31       PYPG     H13R     HAL2     0.900000E-01   1.00800           0   0.00000     -0.301140E-02
      3733 MEMB     31       PYPG     H13S     HAL2     0.900000E-01   1.00800           0   0.00000     -0.301140E-02
      3734 MEMB     31       PYPG     C214     CTL2    -0.180000       12.0110           0   0.00000     -0.301140E-02
      3735 MEMB     31       PYPG     H14R     HAL2     0.900000E-01   1.00800           0   0.00000     -0.301140E-02
      3736 MEMB     31       PYPG     H14S     HAL2     0.900000E-01   1.00800           0   0.00000     -0.301140E-02
      3737 MEMB     31       PYPG     C215     CTL2    -0.180000       12.0110           0   0.00000     -0.301140E-02
      3738 MEMB     31       PYPG     H15R     HAL2     0.900000E-01   1.00800           0   0.00000     -0.301140E-02
      3739 MEMB     31       PYPG     H15S     HAL2     0.900000E-01   1.00800           0   0.00000     -0.301140E-02
      3740 MEMB     31       PYPG     C216     CTL3    -0.270000       12.0110           0   0.00000     -0.301140E-02
      3741 MEMB     31       PYPG     H16R     HAL3     0.900000E-01   1.00800           0   0.00000     -0.301140E-02
      3742 MEMB     31       PYPG     H16S     HAL3     0.900000E-01   1.00800           0   0.00000     -0.301140E-02
      3743 MEMB     31       PYPG     H16T     HAL3     0.900000E-01   1.00800           0   0.00000     -0.301140E-02
      3744 MEMB     31       PYPG     C33      CTL2    -0.180000       12.0110           0   0.00000     -0.301140E-02
      3745 MEMB     31       PYPG     H3X      HAL2     0.900000E-01   1.00800           0   0.00000     -0.301140E-02
      3746 MEMB     31       PYPG     H3Y      HAL2     0.900000E-01   1.00800           0   0.00000     -0.301140E-02
      3747 MEMB     31       PYPG     C34      CTL2    -0.180000       12.0110           0   0.00000     -0.301140E-02
      3748 MEMB     31       PYPG     H4X      HAL2     0.900000E-01   1.00800           0   0.00000     -0.301140E-02
      3749 MEMB     31       PYPG     H4Y      HAL2     0.900000E-01   1.00800           0   0.00000     -0.301140E-02
      3750 MEMB     31       PYPG     C35      CTL2    -0.180000       12.0110           0   0.00000     -0.301140E-02
      3751 MEMB     31       PYPG     H5X      HAL2     0.900000E-01   1.00800           0   0.00000     -0.301140E-02
      3752 MEMB     31       PYPG     H5Y      HAL2     0.900000E-01   1.00800           0   0.00000     -0.301140E-02
      3753 MEMB     31       PYPG     C36      CTL2    -0.180000       12.0110           0   0.00000     -0.301140E-02
      3754 MEMB     31       PYPG     H6X      HAL2     0.900000E-01   1.00800           0   0.00000     -0.301140E-02
      3755 MEMB     31       PYPG     H6Y      HAL2     0.900000E-01   1.00800           0   0.00000     -0.301140E-02
      3756 MEMB     31       PYPG     C37      CTL2    -0.180000       12.0110           0   0.00000     -0.301140E-02
      3757 MEMB     31       PYPG     H7X      HAL2     0.900000E-01   1.00800           0   0.00000     -0.301140E-02
      3758 MEMB     31       PYPG     H7Y      HAL2     0.900000E-01   1.00800           0   0.00000     -0.301140E-02
      3759 MEMB     31       PYPG     C38      CTL2    -0.180000       12.0110           0   0.00000     -0.301140E-02
      3760 MEMB     31       PYPG     H8X      HAL2     0.900000E-01   1.00800           0   0.00000     -0.301140E-02
      3761 MEMB     31       PYPG     H8Y      HAL2     0.900000E-01   1.00800           0   0.00000     -0.301140E-02
      3762 MEMB     31       PYPG     C39      CTL2    -0.180000       12.0110           0   0.00000     -0.301140E-02
      3763 MEMB     31       PYPG     H9X      HAL2     0.900000E-01   1.00800           0   0.00000     -0.301140E-02
      3764 MEMB     31       PYPG     H9Y      HAL2     0.900000E-01   1.00800           0   0.00000     -0.301140E-02
      3765 MEMB     31       PYPG     C310     CTL2    -0.180000       12.0110           0   0.00000     -0.301140E-02
      3766 MEMB     31       PYPG     H10X     HAL2     0.900000E-01   1.00800           0   0.00000     -0.301140E-02
      3767 MEMB     31       PYPG     H10Y     HAL2     0.900000E-01   1.00800           0   0.00000     -0.301140E-02
      3768 MEMB     31       PYPG     C311     CTL2    -0.180000       12.0110           0   0.00000     -0.301140E-02
      3769 MEMB     31       PYPG     H11X     HAL2     0.900000E-01   1.00800           0   0.00000     -0.301140E-02
      3770 MEMB     31       PYPG     H11Y     HAL2     0.900000E-01   1.00800           0   0.00000     -0.301140E-02
      3771 MEMB     31       PYPG     C312     CTL2    -0.180000       12.0110           0   0.00000     -0.301140E-02
      3772 MEMB     31       PYPG     H12X     HAL2     0.900000E-01   1.00800           0   0.00000     -0.301140E-02
      3773 MEMB     31       PYPG     H12Y     HAL2     0.900000E-01   1.00800           0   0.00000     -0.301140E-02
      3774 MEMB     31       PYPG     C313     CTL2    -0.180000       12.0110           0   0.00000     -0.301140E-02
      3775 MEMB     31       PYPG     H13X     HAL2     0.900000E-01   1.00800           0   0.00000     -0.301140E-02
      3776 MEMB     31       PYPG     H13Y     HAL2     0.900000E-01   1.00800           0   0.00000     -0.301140E-02
      3777 MEMB     31       PYPG     C314     CTL2    -0.180000       12.0110           0   0.00000     -0.301140E-02
      3778 MEMB     31       PYPG     H14X     HAL2     0.900000E-01   1.00800           0   0.00000     -0.301140E-02
      3779 MEMB     31       PYPG     H14Y     HAL2     0.900000E-01   1.00800           0   0.00000     -0.301140E-02
      3780 MEMB     31       PYPG     C315     CTL2    -0.180000       12.0110           0   0.00000     -0.301140E-02
      3781 MEMB     31       PYPG     H15X     HAL2     0.900000E-01   1.00800           0   0.00000     -0.301140E-02
      3782 MEMB     31       PYPG     H15Y     HAL2     0.900000E-01   1.00800           0   0.00000     -0.301140E-02
      3783 MEMB     31       PYPG     C316     CTL3    -0.270000       12.0110           0   0.00000     -0.301140E-02
      3784 MEMB     31       PYPG     H16X     HAL3     0.900000E-01   1.00800           0   0.00000     -0.301140E-02
      3785 MEMB     31       PYPG     H16Y     HAL3     0.900000E-01   1.00800           0   0.00000     -0.301140E-02
      3786 MEMB     31       PYPG     H16Z     HAL3     0.900000E-01   1.00800           0   0.00000     -0.301140E-02
      3787 MEMB     32       OYPE     N        NH3L    -0.300000       14.0070           0   0.00000     -0.301140E-02
      3788 MEMB     32       OYPE     HN1      HCL      0.330000       1.00800           0   0.00000     -0.301140E-02
      3789 MEMB     32       OYPE     HN2      HCL      0.330000       1.00800           0   0.00000     -0.301140E-02
      3790 MEMB     32       OYPE     HN3      HCL      0.330000       1.00800           0   0.00000     -0.301140E-02
      3791 MEMB     32       OYPE     C12      CTL2     0.130000       12.0110           0   0.00000     -0.301140E-02
      3792 MEMB     32       OYPE     H12A     HAL2     0.900000E-01   1.00800           0   0.00000     -0.301140E-02
      3793 MEMB     32       OYPE     H12B     HAL2     0.900000E-01   1.00800           0   0.00000     -0.301140E-02
      3794 MEMB     32       OYPE     C11      CTL2    -0.800000E-01   12.0110           0   0.00000     -0.301140E-02
      3795 MEMB     32       OYPE     H11A     HAL2     0.900000E-01   1.00800           0   0.00000     -0.301140E-02
      3796 MEMB     32       OYPE     H11B     HAL2     0.900000E-01   1.00800           0   0.00000     -0.301140E-02
      3797 MEMB     32       OYPE     P        PL        1.50000       30.9740           0   0.00000     -0.301140E-02
      3798 MEMB     32       OYPE     O13      O2L     -0.780000       15.9994           0   0.00000     -0.301140E-02
      3799 MEMB     32       OYPE     O14      O2L     -0.780000       15.9994           0   0.00000     -0.301140E-02
      3800 MEMB     32       OYPE     O11      OSLP    -0.570000       15.9994           0   0.00000     -0.301140E-02
      3801 MEMB     32       OYPE     O12      OSLP    -0.570000       15.9994           0   0.00000     -0.301140E-02
      3802 MEMB     32       OYPE     C1       CTL2    -0.800000E-01   12.0110           0   0.00000     -0.301140E-02
      3803 MEMB     32       OYPE     HA       HAL2     0.900000E-01   1.00800           0   0.00000     -0.301140E-02
      3804 MEMB     32       OYPE     HB       HAL2     0.900000E-01   1.00800           0   0.00000     -0.301140E-02
      3805 MEMB     32       OYPE     C2       CTL1     0.170000       12.0110           0   0.00000     -0.301140E-02
      3806 MEMB     32       OYPE     HS       HAL1     0.900000E-01   1.00800           0   0.00000     -0.301140E-02
      3807 MEMB     32       OYPE     O21      OSL     -0.490000       15.9994           0   0.00000     -0.301140E-02
      3808 MEMB     32       OYPE     C21      CL       0.900000       12.0110           0   0.00000     -0.301140E-02
      3809 MEMB     32       OYPE     O22      OBL     -0.630000       15.9994           0   0.00000     -0.301140E-02
      3810 MEMB     32       OYPE     C22      CTL2    -0.220000       12.0110           0   0.00000     -0.301140E-02
      3811 MEMB     32       OYPE     H2R      HAL2     0.900000E-01   1.00800           0   0.00000     -0.301140E-02
      3812 MEMB     32       OYPE     H2S      HAL2     0.900000E-01   1.00800           0   0.00000     -0.301140E-02
      3813 MEMB     32       OYPE     C3       CTL2     0.800000E-01   12.0110           0   0.00000     -0.301140E-02
      3814 MEMB     32       OYPE     HX       HAL2     0.900000E-01   1.00800           0   0.00000     -0.301140E-02
      3815 MEMB     32       OYPE     HY       HAL2     0.900000E-01   1.00800           0   0.00000     -0.301140E-02
      3816 MEMB     32       OYPE     O31      OSL     -0.490000       15.9994           0   0.00000     -0.301140E-02
      3817 MEMB     32       OYPE     C31      CL       0.900000       12.0110           0   0.00000     -0.301140E-02
      3818 MEMB     32       OYPE     O32      OBL     -0.630000       15.9994           0   0.00000     -0.301140E-02
      3819 MEMB     32       OYPE     C32      CTL2    -0.220000       12.0110           0   0.00000     -0.301140E-02
      3820 MEMB     32       OYPE     H2X      HAL2     0.900000E-01   1.00800           0   0.00000     -0.301140E-02
      3821 MEMB     32       OYPE     H2Y      HAL2     0.900000E-01   1.00800           0   0.00000     -0.301140E-02
      3822 MEMB     32       OYPE     C23      CTL2    -0.180000       12.0110           0   0.00000     -0.301140E-02
      3823 MEMB     32       OYPE     H3R      HAL2     0.900000E-01   1.00800           0   0.00000     -0.301140E-02
      3824 MEMB     32       OYPE     H3S      HAL2     0.900000E-01   1.00800           0   0.00000     -0.301140E-02
      3825 MEMB     32       OYPE     C24      CTL2    -0.180000       12.0110           0   0.00000     -0.301140E-02
      3826 MEMB     32       OYPE     H4R      HAL2     0.900000E-01   1.00800           0   0.00000     -0.301140E-02
      3827 MEMB     32       OYPE     H4S      HAL2     0.900000E-01   1.00800           0   0.00000     -0.301140E-02
      3828 MEMB     32       OYPE     C25      CTL2    -0.180000       12.0110           0   0.00000     -0.301140E-02
      3829 MEMB     32       OYPE     H5R      HAL2     0.900000E-01   1.00800           0   0.00000     -0.301140E-02
      3830 MEMB     32       OYPE     H5S      HAL2     0.900000E-01   1.00800           0   0.00000     -0.301140E-02
      3831 MEMB     32       OYPE     C26      CTL2    -0.180000       12.0110           0   0.00000     -0.301140E-02
      3832 MEMB     32       OYPE     H6R      HAL2     0.900000E-01   1.00800           0   0.00000     -0.301140E-02
      3833 MEMB     32       OYPE     H6S      HAL2     0.900000E-01   1.00800           0   0.00000     -0.301140E-02
      3834 MEMB     32       OYPE     C27      CTL2    -0.180000       12.0110           0   0.00000     -0.301140E-02
      3835 MEMB     32       OYPE     H7R      HAL2     0.900000E-01   1.00800           0   0.00000     -0.301140E-02
      3836 MEMB     32       OYPE     H7S      HAL2     0.900000E-01   1.00800           0   0.00000     -0.301140E-02
      3837 MEMB     32       OYPE     C28      CTL2    -0.180000       12.0110           0   0.00000     -0.301140E-02
      3838 MEMB     32       OYPE     H8R      HAL2     0.900000E-01   1.00800           0   0.00000     -0.301140E-02
      3839 MEMB     32       OYPE     H8S      HAL2     0.900000E-01   1.00800           0   0.00000     -0.301140E-02
      3840 MEMB     32       OYPE     C29      CEL1    -0.150000       12.0110           0   0.00000     -0.301140E-02
      3841 MEMB     32       OYPE     H9R      HEL1     0.150000       1.00800           0   0.00000     -0.301140E-02
      3842 MEMB     32       OYPE     C210     CEL1    -0.150000       12.0110           0   0.00000     -0.301140E-02
      3843 MEMB     32       OYPE     H10R     HEL1     0.150000       1.00800           0   0.00000     -0.301140E-02
      3844 MEMB     32       OYPE     C211     CTL2    -0.180000       12.0110           0   0.00000     -0.301140E-02
      3845 MEMB     32       OYPE     H11R     HAL2     0.900000E-01   1.00800           0   0.00000     -0.301140E-02
      3846 MEMB     32       OYPE     H11S     HAL2     0.900000E-01   1.00800           0   0.00000     -0.301140E-02
      3847 MEMB     32       OYPE     C212     CTL2    -0.180000       12.0110           0   0.00000     -0.301140E-02
      3848 MEMB     32       OYPE     H12R     HAL2     0.900000E-01   1.00800           0   0.00000     -0.301140E-02
      3849 MEMB     32       OYPE     H12S     HAL2     0.900000E-01   1.00800           0   0.00000     -0.301140E-02
      3850 MEMB     32       OYPE     C213     CTL2    -0.180000       12.0110           0   0.00000     -0.301140E-02
      3851 MEMB     32       OYPE     H13R     HAL2     0.900000E-01   1.00800           0   0.00000     -0.301140E-02
      3852 MEMB     32       OYPE     H13S     HAL2     0.900000E-01   1.00800           0   0.00000     -0.301140E-02
      3853 MEMB     32       OYPE     C214     CTL2    -0.180000       12.0110           0   0.00000     -0.301140E-02
      3854 MEMB     32       OYPE     H14R     HAL2     0.900000E-01   1.00800           0   0.00000     -0.301140E-02
      3855 MEMB     32       OYPE     H14S     HAL2     0.900000E-01   1.00800           0   0.00000     -0.301140E-02
      3856 MEMB     32       OYPE     C215     CTL2    -0.180000       12.0110           0   0.00000     -0.301140E-02
      3857 MEMB     32       OYPE     H15R     HAL2     0.900000E-01   1.00800           0   0.00000     -0.301140E-02
      3858 MEMB     32       OYPE     H15S     HAL2     0.900000E-01   1.00800           0   0.00000     -0.301140E-02
      3859 MEMB     32       OYPE     C216     CTL3    -0.270000       12.0110           0   0.00000     -0.301140E-02
      3860 MEMB     32       OYPE     H16R     HAL3     0.900000E-01   1.00800           0   0.00000     -0.301140E-02
      3861 MEMB     32       OYPE     H16S     HAL3     0.900000E-01   1.00800           0   0.00000     -0.301140E-02
      3862 MEMB     32       OYPE     H16T     HAL3     0.900000E-01   1.00800           0   0.00000     -0.301140E-02
      3863 MEMB     32       OYPE     C33      CTL2    -0.180000       12.0110           0   0.00000     -0.301140E-02
      3864 MEMB     32       OYPE     H3X      HAL2     0.900000E-01   1.00800           0   0.00000     -0.301140E-02
      3865 MEMB     32       OYPE     H3Y      HAL2     0.900000E-01   1.00800           0   0.00000     -0.301140E-02
      3866 MEMB     32       OYPE     C34      CTL2    -0.180000       12.0110           0   0.00000     -0.301140E-02
      3867 MEMB     32       OYPE     H4X      HAL2     0.900000E-01   1.00800           0   0.00000     -0.301140E-02
      3868 MEMB     32       OYPE     H4Y      HAL2     0.900000E-01   1.00800           0   0.00000     -0.301140E-02
      3869 MEMB     32       OYPE     C35      CTL2    -0.180000       12.0110           0   0.00000     -0.301140E-02
      3870 MEMB     32       OYPE     H5X      HAL2     0.900000E-01   1.00800           0   0.00000     -0.301140E-02
      3871 MEMB     32       OYPE     H5Y      HAL2     0.900000E-01   1.00800           0   0.00000     -0.301140E-02
      3872 MEMB     32       OYPE     C36      CTL2    -0.180000       12.0110           0   0.00000     -0.301140E-02
      3873 MEMB     32       OYPE     H6X      HAL2     0.900000E-01   1.00800           0   0.00000     -0.301140E-02
      3874 MEMB     32       OYPE     H6Y      HAL2     0.900000E-01   1.00800           0   0.00000     -0.301140E-02
      3875 MEMB     32       OYPE     C37      CTL2    -0.180000       12.0110           0   0.00000     -0.301140E-02
      3876 MEMB     32       OYPE     H7X      HAL2     0.900000E-01   1.00800           0   0.00000     -0.301140E-02
      3877 MEMB     32       OYPE     H7Y      HAL2     0.900000E-01   1.00800           0   0.00000     -0.301140E-02
      3878 MEMB     32       OYPE     C38      CTL2    -0.180000       12.0110           0   0.00000     -0.301140E-02
      3879 MEMB     32       OYPE     H8X      HAL2     0.900000E-01   1.00800           0   0.00000     -0.301140E-02
      3880 MEMB     32       OYPE     H8Y      HAL2     0.900000E-01   1.00800           0   0.00000     -0.301140E-02
      3881 MEMB     32       OYPE     C39      CEL1    -0.150000       12.0110           0   0.00000     -0.301140E-02
      3882 MEMB     32       OYPE     H9X      HEL1     0.150000       1.00800           0   0.00000     -0.301140E-02
      3883 MEMB     32       OYPE     C310     CEL1    -0.150000       12.0110           0   0.00000     -0.301140E-02
      3884 MEMB     32       OYPE     H10X     HEL1     0.150000       1.00800           0   0.00000     -0.301140E-02
      3885 MEMB     32       OYPE     C311     CTL2    -0.180000       12.0110           0   0.00000     -0.301140E-02
      3886 MEMB     32       OYPE     H11X     HAL2     0.900000E-01   1.00800           0   0.00000     -0.301140E-02
      3887 MEMB     32       OYPE     H11Y     HAL2     0.900000E-01   1.00800           0   0.00000     -0.301140E-02
      3888 MEMB     32       OYPE     C312     CTL2    -0.180000       12.0110           0   0.00000     -0.301140E-02
      3889 MEMB     32       OYPE     H12X     HAL2     0.900000E-01   1.00800           0   0.00000     -0.301140E-02
      3890 MEMB     32       OYPE     H12Y     HAL2     0.900000E-01   1.00800           0   0.00000     -0.301140E-02
      3891 MEMB     32       OYPE     C313     CTL2    -0.180000       12.0110           0   0.00000     -0.301140E-02
      3892 MEMB     32       OYPE     H13X     HAL2     0.900000E-01   1.00800           0   0.00000     -0.301140E-02
      3893 MEMB     32       OYPE     H13Y     HAL2     0.900000E-01   1.00800           0   0.00000     -0.301140E-02
      3894 MEMB     32       OYPE     C314     CTL2    -0.180000       12.0110           0   0.00000     -0.301140E-02
      3895 MEMB     32       OYPE     H14X     HAL2     0.900000E-01   1.00800           0   0.00000     -0.301140E-02
      3896 MEMB     32       OYPE     H14Y     HAL2     0.900000E-01   1.00800           0   0.00000     -0.301140E-02
      3897 MEMB     32       OYPE     C315     CTL2    -0.180000       12.0110           0   0.00000     -0.301140E-02
      3898 MEMB     32       OYPE     H15X     HAL2     0.900000E-01   1.00800           0   0.00000     -0.301140E-02
      3899 MEMB     32       OYPE     H15Y     HAL2     0.900000E-01   1.00800           0   0.00000     -0.301140E-02
      3900 MEMB     32       OYPE     C316     CTL2    -0.180000       12.0110           0   0.00000     -0.301140E-02
      3901 MEMB     32       OYPE     H16X     HAL2     0.900000E-01   1.00800           0   0.00000     -0.301140E-02
      3902 MEMB     32       OYPE     H16Y     HAL2     0.900000E-01   1.00800           0   0.00000     -0.301140E-02
      3903 MEMB     32       OYPE     C317     CTL2    -0.180000       12.0110           0   0.00000     -0.301140E-02
      3904 MEMB     32       OYPE     H17X     HAL2     0.900000E-01   1.00800           0   0.00000     -0.301140E-02
      3905 MEMB     32       OYPE     H17Y     HAL2     0.900000E-01   1.00800           0   0.00000     -0.301140E-02
      3906 MEMB     32       OYPE     C318     CTL3    -0.270000       12.0110           0   0.00000     -0.301140E-02
      3907 MEMB     32       OYPE     H18X     HAL3     0.900000E-01   1.00800           0   0.00000     -0.301140E-02
      3908 MEMB     32       OYPE     H18Y     HAL3     0.900000E-01   1.00800           0   0.00000     -0.301140E-02
      3909 MEMB     32       OYPE     H18Z     HAL3     0.900000E-01   1.00800           0   0.00000     -0.301140E-02
      3910 MEMB     33       OYPE     N        NH3L    -0.300000       14.0070           0   0.00000     -0.301140E-02
      3911 MEMB     33       OYPE     HN1      HCL      0.330000       1.00800           0   0.00000     -0.301140E-02
      3912 MEMB     33       OYPE     HN2      HCL      0.330000       1.00800           0   0.00000     -0.301140E-02
      3913 MEMB     33       OYPE     HN3      HCL      0.330000       1.00800           0   0.00000     -0.301140E-02
      3914 MEMB     33       OYPE     C12      CTL2     0.130000       12.0110           0   0.00000     -0.301140E-02
      3915 MEMB     33       OYPE     H12A     HAL2     0.900000E-01   1.00800           0   0.00000     -0.301140E-02
      3916 MEMB     33       OYPE     H12B     HAL2     0.900000E-01   1.00800           0   0.00000     -0.301140E-02
      3917 MEMB     33       OYPE     C11      CTL2    -0.800000E-01   12.0110           0   0.00000     -0.301140E-02
      3918 MEMB     33       OYPE     H11A     HAL2     0.900000E-01   1.00800           0   0.00000     -0.301140E-02
      3919 MEMB     33       OYPE     H11B     HAL2     0.900000E-01   1.00800           0   0.00000     -0.301140E-02
      3920 MEMB     33       OYPE     P        PL        1.50000       30.9740           0   0.00000     -0.301140E-02
      3921 MEMB     33       OYPE     O13      O2L     -0.780000       15.9994           0   0.00000     -0.301140E-02
      3922 MEMB     33       OYPE     O14      O2L     -0.780000       15.9994           0   0.00000     -0.301140E-02
      3923 MEMB     33       OYPE     O11      OSLP    -0.570000       15.9994           0   0.00000     -0.301140E-02
      3924 MEMB     33       OYPE     O12      OSLP    -0.570000       15.9994           0   0.00000     -0.301140E-02
      3925 MEMB     33       OYPE     C1       CTL2    -0.800000E-01   12.0110           0   0.00000     -0.301140E-02
      3926 MEMB     33       OYPE     HA       HAL2     0.900000E-01   1.00800           0   0.00000     -0.301140E-02
      3927 MEMB     33       OYPE     HB       HAL2     0.900000E-01   1.00800           0   0.00000     -0.301140E-02
      3928 MEMB     33       OYPE     C2       CTL1     0.170000       12.0110           0   0.00000     -0.301140E-02
      3929 MEMB     33       OYPE     HS       HAL1     0.900000E-01   1.00800           0   0.00000     -0.301140E-02
      3930 MEMB     33       OYPE     O21      OSL     -0.490000       15.9994           0   0.00000     -0.301140E-02
      3931 MEMB     33       OYPE     C21      CL       0.900000       12.0110           0   0.00000     -0.301140E-02
      3932 MEMB     33       OYPE     O22      OBL     -0.630000       15.9994           0   0.00000     -0.301140E-02
      3933 MEMB     33       OYPE     C22      CTL2    -0.220000       12.0110           0   0.00000     -0.301140E-02
      3934 MEMB     33       OYPE     H2R      HAL2     0.900000E-01   1.00800           0   0.00000     -0.301140E-02
      3935 MEMB     33       OYPE     H2S      HAL2     0.900000E-01   1.00800           0   0.00000     -0.301140E-02
      3936 MEMB     33       OYPE     C3       CTL2     0.800000E-01   12.0110           0   0.00000     -0.301140E-02
      3937 MEMB     33       OYPE     HX       HAL2     0.900000E-01   1.00800           0   0.00000     -0.301140E-02
      3938 MEMB     33       OYPE     HY       HAL2     0.900000E-01   1.00800           0   0.00000     -0.301140E-02
      3939 MEMB     33       OYPE     O31      OSL     -0.490000       15.9994           0   0.00000     -0.301140E-02
      3940 MEMB     33       OYPE     C31      CL       0.900000       12.0110           0   0.00000     -0.301140E-02
      3941 MEMB     33       OYPE     O32      OBL     -0.630000       15.9994           0   0.00000     -0.301140E-02
      3942 MEMB     33       OYPE     C32      CTL2    -0.220000       12.0110           0   0.00000     -0.301140E-02
      3943 MEMB     33       OYPE     H2X      HAL2     0.900000E-01   1.00800           0   0.00000     -0.301140E-02
      3944 MEMB     33       OYPE     H2Y      HAL2     0.900000E-01   1.00800           0   0.00000     -0.301140E-02
      3945 MEMB     33       OYPE     C23      CTL2    -0.180000       12.0110           0   0.00000     -0.301140E-02
      3946 MEMB     33       OYPE     H3R      HAL2     0.900000E-01   1.00800           0   0.00000     -0.301140E-02
      3947 MEMB     33       OYPE     H3S      HAL2     0.900000E-01   1.00800           0   0.00000     -0.301140E-02
      3948 MEMB     33       OYPE     C24      CTL2    -0.180000       12.0110           0   0.00000     -0.301140E-02
      3949 MEMB     33       OYPE     H4R      HAL2     0.900000E-01   1.00800           0   0.00000     -0.301140E-02
      3950 MEMB     33       OYPE     H4S      HAL2     0.900000E-01   1.00800           0   0.00000     -0.301140E-02
      3951 MEMB     33       OYPE     C25      CTL2    -0.180000       12.0110           0   0.00000     -0.301140E-02
      3952 MEMB     33       OYPE     H5R      HAL2     0.900000E-01   1.00800           0   0.00000     -0.301140E-02
      3953 MEMB     33       OYPE     H5S      HAL2     0.900000E-01   1.00800           0   0.00000     -0.301140E-02
      3954 MEMB     33       OYPE     C26      CTL2    -0.180000       12.0110           0   0.00000     -0.301140E-02
      3955 MEMB     33       OYPE     H6R      HAL2     0.900000E-01   1.00800           0   0.00000     -0.301140E-02
      3956 MEMB     33       OYPE     H6S      HAL2     0.900000E-01   1.00800           0   0.00000     -0.301140E-02
      3957 MEMB     33       OYPE     C27      CTL2    -0.180000       12.0110           0   0.00000     -0.301140E-02
      3958 MEMB     33       OYPE     H7R      HAL2     0.900000E-01   1.00800           0   0.00000     -0.301140E-02
      3959 MEMB     33       OYPE     H7S      HAL2     0.900000E-01   1.00800           0   0.00000     -0.301140E-02
      3960 MEMB     33       OYPE     C28      CTL2    -0.180000       12.0110           0   0.00000     -0.301140E-02
      3961 MEMB     33       OYPE     H8R      HAL2     0.900000E-01   1.00800           0   0.00000     -0.301140E-02
      3962 MEMB     33       OYPE     H8S      HAL2     0.900000E-01   1.00800           0   0.00000     -0.301140E-02
      3963 MEMB     33       OYPE     C29      CEL1    -0.150000       12.0110           0   0.00000     -0.301140E-02
      3964 MEMB     33       OYPE     H9R      HEL1     0.150000       1.00800           0   0.00000     -0.301140E-02
      3965 MEMB     33       OYPE     C210     CEL1    -0.150000       12.0110           0   0.00000     -0.301140E-02
      3966 MEMB     33       OYPE     H10R     HEL1     0.150000       1.00800           0   0.00000     -0.301140E-02
      3967 MEMB     33       OYPE     C211     CTL2    -0.180000       12.0110           0   0.00000     -0.301140E-02
      3968 MEMB     33       OYPE     H11R     HAL2     0.900000E-01   1.00800           0   0.00000     -0.301140E-02
      3969 MEMB     33       OYPE     H11S     HAL2     0.900000E-01   1.00800           0   0.00000     -0.301140E-02
      3970 MEMB     33       OYPE     C212     CTL2    -0.180000       12.0110           0   0.00000     -0.301140E-02
      3971 MEMB     33       OYPE     H12R     HAL2     0.900000E-01   1.00800           0   0.00000     -0.301140E-02
      3972 MEMB     33       OYPE     H12S     HAL2     0.900000E-01   1.00800           0   0.00000     -0.301140E-02
      3973 MEMB     33       OYPE     C213     CTL2    -0.180000       12.0110           0   0.00000     -0.301140E-02
      3974 MEMB     33       OYPE     H13R     HAL2     0.900000E-01   1.00800           0   0.00000     -0.301140E-02
      3975 MEMB     33       OYPE     H13S     HAL2     0.900000E-01   1.00800           0   0.00000     -0.301140E-02
      3976 MEMB     33       OYPE     C214     CTL2    -0.180000       12.0110           0   0.00000     -0.301140E-02
      3977 MEMB     33       OYPE     H14R     HAL2     0.900000E-01   1.00800           0   0.00000     -0.301140E-02
      3978 MEMB     33       OYPE     H14S     HAL2     0.900000E-01   1.00800           0   0.00000     -0.301140E-02
      3979 MEMB     33       OYPE     C215     CTL2    -0.180000       12.0110           0   0.00000     -0.301140E-02
      3980 MEMB     33       OYPE     H15R     HAL2     0.900000E-01   1.00800           0   0.00000     -0.301140E-02
      3981 MEMB     33       OYPE     H15S     HAL2     0.900000E-01   1.00800           0   0.00000     -0.301140E-02
      3982 MEMB     33       OYPE     C216     CTL3    -0.270000       12.0110           0   0.00000     -0.301140E-02
      3983 MEMB     33       OYPE     H16R     HAL3     0.900000E-01   1.00800           0   0.00000     -0.301140E-02
      3984 MEMB     33       OYPE     H16S     HAL3     0.900000E-01   1.00800           0   0.00000     -0.301140E-02
      3985 MEMB     33       OYPE     H16T     HAL3     0.900000E-01   1.00800           0   0.00000     -0.301140E-02
      3986 MEMB     33       OYPE     C33      CTL2    -0.180000       12.0110           0   0.00000     -0.301140E-02
      3987 MEMB     33       OYPE     H3X      HAL2     0.900000E-01   1.00800           0   0.00000     -0.301140E-02
      3988 MEMB     33       OYPE     H3Y      HAL2     0.900000E-01   1.00800           0   0.00000     -0.301140E-02
      3989 MEMB     33       OYPE     C34      CTL2    -0.180000       12.0110           0   0.00000     -0.301140E-02
      3990 MEMB     33       OYPE     H4X      HAL2     0.900000E-01   1.00800           0   0.00000     -0.301140E-02
      3991 MEMB     33       OYPE     H4Y      HAL2     0.900000E-01   1.00800           0   0.00000     -0.301140E-02
      3992 MEMB     33       OYPE     C35      CTL2    -0.180000       12.0110           0   0.00000     -0.301140E-02
      3993 MEMB     33       OYPE     H5X      HAL2     0.900000E-01   1.00800           0   0.00000     -0.301140E-02
      3994 MEMB     33       OYPE     H5Y      HAL2     0.900000E-01   1.00800           0   0.00000     -0.301140E-02
      3995 MEMB     33       OYPE     C36      CTL2    -0.180000       12.0110           0   0.00000     -0.301140E-02
      3996 MEMB     33       OYPE     H6X      HAL2     0.900000E-01   1.00800           0   0.00000     -0.301140E-02
      3997 MEMB     33       OYPE     H6Y      HAL2     0.900000E-01   1.00800           0   0.00000     -0.301140E-02
      3998 MEMB     33       OYPE     C37      CTL2    -0.180000       12.0110           0   0.00000     -0.301140E-02
      3999 MEMB     33       OYPE     H7X      HAL2     0.900000E-01   1.00800           0   0.00000     -0.301140E-02
      4000 MEMB     33       OYPE     H7Y      HAL2     0.900000E-01   1.00800           0   0.00000     -0.301140E-02
      4001 MEMB     33       OYPE     C38      CTL2    -0.180000       12.0110           0   0.00000     -0.301140E-02
      4002 MEMB     33       OYPE     H8X      HAL2     0.900000E-01   1.00800           0   0.00000     -0.301140E-02
      4003 MEMB     33       OYPE     H8Y      HAL2     0.900000E-01   1.00800           0   0.00000     -0.301140E-02
      4004 MEMB     33       OYPE     C39      CEL1    -0.150000       12.0110           0   0.00000     -0.301140E-02
      4005 MEMB     33       OYPE     H9X      HEL1     0.150000       1.00800           0   0.00000     -0.301140E-02
      4006 MEMB     33       OYPE     C310     CEL1    -0.150000       12.0110           0   0.00000     -0.301140E-02
      4007 MEMB     33       OYPE     H10X     HEL1     0.150000       1.00800           0   0.00000     -0.301140E-02
      4008 MEMB     33       OYPE     C311     CTL2    -0.180000       12.0110           0   0.00000     -0.301140E-02
      4009 MEMB     33       OYPE     H11X     HAL2     0.900000E-01   1.00800           0   0.00000     -0.301140E-02
      4010 MEMB     33       OYPE     H11Y     HAL2     0.900000E-01   1.00800           0   0.00000     -0.301140E-02
      4011 MEMB     33       OYPE     C312     CTL2    -0.180000       12.0110           0   0.00000     -0.301140E-02
      4012 MEMB     33       OYPE     H12X     HAL2     0.900000E-01   1.00800           0   0.00000     -0.301140E-02
      4013 MEMB     33       OYPE     H12Y     HAL2     0.900000E-01   1.00800           0   0.00000     -0.301140E-02
      4014 MEMB     33       OYPE     C313     CTL2    -0.180000       12.0110           0   0.00000     -0.301140E-02
      4015 MEMB     33       OYPE     H13X     HAL2     0.900000E-01   1.00800           0   0.00000     -0.301140E-02
      4016 MEMB     33       OYPE     H13Y     HAL2     0.900000E-01   1.00800           0   0.00000     -0.301140E-02
      4017 MEMB     33       OYPE     C314     CTL2    -0.180000       12.0110           0   0.00000     -0.301140E-02
      4018 MEMB     33       OYPE     H14X     HAL2     0.900000E-01   1.00800           0   0.00000     -0.301140E-02
      4019 MEMB     33       OYPE     H14Y     HAL2     0.900000E-01   1.00800           0   0.00000     -0.301140E-02
      4020 MEMB     33       OYPE     C315     CTL2    -0.180000       12.0110           0   0.00000     -0.301140E-02
      4021 MEMB     33       OYPE     H15X     HAL2     0.900000E-01   1.00800           0   0.00000     -0.301140E-02
      4022 MEMB     33       OYPE     H15Y     HAL2     0.900000E-01   1.00800           0   0.00000     -0.301140E-02
      4023 MEMB     33       OYPE     C316     CTL2    -0.180000       12.0110           0   0.00000     -0.301140E-02
      4024 MEMB     33       OYPE     H16X     HAL2     0.900000E-01   1.00800           0   0.00000     -0.301140E-02
      4025 MEMB     33       OYPE     H16Y     HAL2     0.900000E-01   1.00800           0   0.00000     -0.301140E-02
      4026 MEMB     33       OYPE     C317     CTL2    -0.180000       12.0110           0   0.00000     -0.301140E-02
      4027 MEMB     33       OYPE     H17X     HAL2     0.900000E-01   1.00800           0   0.00000     -0.301140E-02
      4028 MEMB     33       OYPE     H17Y     HAL2     0.900000E-01   1.00800           0   0.00000     -0.301140E-02
      4029 MEMB     33       OYPE     C318     CTL3    -0.270000       12.0110           0   0.00000     -0.301140E-02
      4030 MEMB     33       OYPE     H18X     HAL3     0.900000E-01   1.00800           0   0.00000     -0.301140E-02
      4031 MEMB     33       OYPE     H18Y     HAL3     0.900000E-01   1.00800           0   0.00000     -0.301140E-02
      4032 MEMB     33       OYPE     H18Z     HAL3     0.900000E-01   1.00800           0   0.00000     -0.301140E-02
      4033 MEMB     34       PMPG     C13      CTL2     0.500000E-01   12.0110           0   0.00000     -0.301140E-02
      4034 MEMB     34       PMPG     H13A     HAL2     0.900000E-01   1.00800           0   0.00000     -0.301140E-02
      4035 MEMB     34       PMPG     H13B     HAL2     0.900000E-01   1.00800           0   0.00000     -0.301140E-02
      4036 MEMB     34       PMPG     OC3      OHL     -0.660000       15.9994           0   0.00000     -0.301140E-02
      4037 MEMB     34       PMPG     HO3      HOL      0.430000       1.00800           0   0.00000     -0.301140E-02
      4038 MEMB     34       PMPG     C12      CTL1     0.140000       12.0110           0   0.00000     -0.301140E-02
      4039 MEMB     34       PMPG     H12A     HAL1     0.900000E-01   1.00800           0   0.00000     -0.301140E-02
      4040 MEMB     34       PMPG     OC2      OHL     -0.660000       15.9994           0   0.00000     -0.301140E-02
      4041 MEMB     34       PMPG     HO2      HOL      0.430000       1.00800           0   0.00000     -0.301140E-02
      4042 MEMB     34       PMPG     C11      CTL2    -0.800000E-01   12.0110           0   0.00000     -0.301140E-02
      4043 MEMB     34       PMPG     H11A     HAL2     0.900000E-01   1.00800           0   0.00000     -0.301140E-02
      4044 MEMB     34       PMPG     H11B     HAL2     0.900000E-01   1.00800           0   0.00000     -0.301140E-02
      4045 MEMB     34       PMPG     P        PL        1.50000       30.9740           0   0.00000     -0.301140E-02
      4046 MEMB     34       PMPG     O13      O2L     -0.780000       15.9994           0   0.00000     -0.301140E-02
      4047 MEMB     34       PMPG     O14      O2L     -0.780000       15.9994           0   0.00000     -0.301140E-02
      4048 MEMB     34       PMPG     O11      OSLP    -0.570000       15.9994           0   0.00000     -0.301140E-02
      4049 MEMB     34       PMPG     O12      OSLP    -0.570000       15.9994           0   0.00000     -0.301140E-02
      4050 MEMB     34       PMPG     C1       CTL2    -0.800000E-01   12.0110           0   0.00000     -0.301140E-02
      4051 MEMB     34       PMPG     HA       HAL2     0.900000E-01   1.00800           0   0.00000     -0.301140E-02
      4052 MEMB     34       PMPG     HB       HAL2     0.900000E-01   1.00800           0   0.00000     -0.301140E-02
      4053 MEMB     34       PMPG     C2       CTL1     0.170000       12.0110           0   0.00000     -0.301140E-02
      4054 MEMB     34       PMPG     HS       HAL1     0.900000E-01   1.00800           0   0.00000     -0.301140E-02
      4055 MEMB     34       PMPG     O21      OSL     -0.490000       15.9994           0   0.00000     -0.301140E-02
      4056 MEMB     34       PMPG     C21      CL       0.900000       12.0110           0   0.00000     -0.301140E-02
      4057 MEMB     34       PMPG     O22      OBL     -0.630000       15.9994           0   0.00000     -0.301140E-02
      4058 MEMB     34       PMPG     C22      CTL2    -0.220000       12.0110           0   0.00000     -0.301140E-02
      4059 MEMB     34       PMPG     H2R      HAL2     0.900000E-01   1.00800           0   0.00000     -0.301140E-02
      4060 MEMB     34       PMPG     H2S      HAL2     0.900000E-01   1.00800           0   0.00000     -0.301140E-02
      4061 MEMB     34       PMPG     C3       CTL2     0.800000E-01   12.0110           0   0.00000     -0.301140E-02
      4062 MEMB     34       PMPG     HX       HAL2     0.900000E-01   1.00800           0   0.00000     -0.301140E-02
      4063 MEMB     34       PMPG     HY       HAL2     0.900000E-01   1.00800           0   0.00000     -0.301140E-02
      4064 MEMB     34       PMPG     O31      OSL     -0.490000       15.9994           0   0.00000     -0.301140E-02
      4065 MEMB     34       PMPG     C31      CL       0.900000       12.0110           0   0.00000     -0.301140E-02
      4066 MEMB     34       PMPG     O32      OBL     -0.630000       15.9994           0   0.00000     -0.301140E-02
      4067 MEMB     34       PMPG     C32      CTL2    -0.220000       12.0110           0   0.00000     -0.301140E-02
      4068 MEMB     34       PMPG     H2X      HAL2     0.900000E-01   1.00800           0   0.00000     -0.301140E-02
      4069 MEMB     34       PMPG     H2Y      HAL2     0.900000E-01   1.00800           0   0.00000     -0.301140E-02
      4070 MEMB     34       PMPG     C23      CTL2    -0.180000       12.0110           0   0.00000     -0.301140E-02
      4071 MEMB     34       PMPG     H3R      HAL2     0.900000E-01   1.00800           0   0.00000     -0.301140E-02
      4072 MEMB     34       PMPG     H3S      HAL2     0.900000E-01   1.00800           0   0.00000     -0.301140E-02
      4073 MEMB     34       PMPG     C24      CTL2    -0.180000       12.0110           0   0.00000     -0.301140E-02
      4074 MEMB     34       PMPG     H4R      HAL2     0.900000E-01   1.00800           0   0.00000     -0.301140E-02
      4075 MEMB     34       PMPG     H4S      HAL2     0.900000E-01   1.00800           0   0.00000     -0.301140E-02
      4076 MEMB     34       PMPG     C25      CTL2    -0.180000       12.0110           0   0.00000     -0.301140E-02
      4077 MEMB     34       PMPG     H5R      HAL2     0.900000E-01   1.00800           0   0.00000     -0.301140E-02
      4078 MEMB     34       PMPG     H5S      HAL2     0.900000E-01   1.00800           0   0.00000     -0.301140E-02
      4079 MEMB     34       PMPG     C26      CTL2    -0.180000       12.0110           0   0.00000     -0.301140E-02
      4080 MEMB     34       PMPG     H6R      HAL2     0.900000E-01   1.00800           0   0.00000     -0.301140E-02
      4081 MEMB     34       PMPG     H6S      HAL2     0.900000E-01   1.00800           0   0.00000     -0.301140E-02
      4082 MEMB     34       PMPG     C27      CTL2    -0.180000       12.0110           0   0.00000     -0.301140E-02
      4083 MEMB     34       PMPG     H7R      HAL2     0.900000E-01   1.00800           0   0.00000     -0.301140E-02
      4084 MEMB     34       PMPG     H7S      HAL2     0.900000E-01   1.00800           0   0.00000     -0.301140E-02
      4085 MEMB     34       PMPG     C28      CTL2    -0.180000       12.0110           0   0.00000     -0.301140E-02
      4086 MEMB     34       PMPG     H8R      HAL2     0.900000E-01   1.00800           0   0.00000     -0.301140E-02
      4087 MEMB     34       PMPG     H8S      HAL2     0.900000E-01   1.00800           0   0.00000     -0.301140E-02
      4088 MEMB     34       PMPG     C29      CG3RC1  -0.900000E-01   12.0110           0   0.00000     -0.301140E-02
      4089 MEMB     34       PMPG     H9R      HGA1     0.900000E-01   1.00800           0   0.00000     -0.301140E-02
      4090 MEMB     34       PMPG     C217     CG3C31  -0.180000       12.0110           0   0.00000     -0.301140E-02
      4091 MEMB     34       PMPG     H17R     HGA2     0.900000E-01   1.00800           0   0.00000     -0.301140E-02
      4092 MEMB     34       PMPG     H17S     HGA2     0.900000E-01   1.00800           0   0.00000     -0.301140E-02
      4093 MEMB     34       PMPG     C210     CG3RC1  -0.900000E-01   12.0110           0   0.00000     -0.301140E-02
      4094 MEMB     34       PMPG     H10R     HGA1     0.900000E-01   1.00800           0   0.00000     -0.301140E-02
      4095 MEMB     34       PMPG     C211     CTL2    -0.180000       12.0110           0   0.00000     -0.301140E-02
      4096 MEMB     34       PMPG     H11R     HAL2     0.900000E-01   1.00800           0   0.00000     -0.301140E-02
      4097 MEMB     34       PMPG     H11S     HAL2     0.900000E-01   1.00800           0   0.00000     -0.301140E-02
      4098 MEMB     34       PMPG     C212     CTL2    -0.180000       12.0110           0   0.00000     -0.301140E-02
      4099 MEMB     34       PMPG     H12R     HAL2     0.900000E-01   1.00800           0   0.00000     -0.301140E-02
      4100 MEMB     34       PMPG     H12S     HAL2     0.900000E-01   1.00800           0   0.00000     -0.301140E-02
      4101 MEMB     34       PMPG     C213     CTL2    -0.180000       12.0110           0   0.00000     -0.301140E-02
      4102 MEMB     34       PMPG     H13R     HAL2     0.900000E-01   1.00800           0   0.00000     -0.301140E-02
      4103 MEMB     34       PMPG     H13S     HAL2     0.900000E-01   1.00800           0   0.00000     -0.301140E-02
      4104 MEMB     34       PMPG     C214     CTL2    -0.180000       12.0110           0   0.00000     -0.301140E-02
      4105 MEMB     34       PMPG     H14R     HAL2     0.900000E-01   1.00800           0   0.00000     -0.301140E-02
      4106 MEMB     34       PMPG     H14S     HAL2     0.900000E-01   1.00800           0   0.00000     -0.301140E-02
      4107 MEMB     34       PMPG     C215     CTL2    -0.180000       12.0110           0   0.00000     -0.301140E-02
      4108 MEMB     34       PMPG     H15R     HAL2     0.900000E-01   1.00800           0   0.00000     -0.301140E-02
      4109 MEMB     34       PMPG     H15S     HAL2     0.900000E-01   1.00800           0   0.00000     -0.301140E-02
      4110 MEMB     34       PMPG     C216     CTL3    -0.270000       12.0110           0   0.00000     -0.301140E-02
      4111 MEMB     34       PMPG     H16R     HAL3     0.900000E-01   1.00800           0   0.00000     -0.301140E-02
      4112 MEMB     34       PMPG     H16S     HAL3     0.900000E-01   1.00800           0   0.00000     -0.301140E-02
      4113 MEMB     34       PMPG     H16T     HAL3     0.900000E-01   1.00800           0   0.00000     -0.301140E-02
      4114 MEMB     34       PMPG     C33      CTL2    -0.180000       12.0110           0   0.00000     -0.301140E-02
      4115 MEMB     34       PMPG     H3X      HAL2     0.900000E-01   1.00800           0   0.00000     -0.301140E-02
      4116 MEMB     34       PMPG     H3Y      HAL2     0.900000E-01   1.00800           0   0.00000     -0.301140E-02
      4117 MEMB     34       PMPG     C34      CTL2    -0.180000       12.0110           0   0.00000     -0.301140E-02
      4118 MEMB     34       PMPG     H4X      HAL2     0.900000E-01   1.00800           0   0.00000     -0.301140E-02
      4119 MEMB     34       PMPG     H4Y      HAL2     0.900000E-01   1.00800           0   0.00000     -0.301140E-02
      4120 MEMB     34       PMPG     C35      CTL2    -0.180000       12.0110           0   0.00000     -0.301140E-02
      4121 MEMB     34       PMPG     H5X      HAL2     0.900000E-01   1.00800           0   0.00000     -0.301140E-02
      4122 MEMB     34       PMPG     H5Y      HAL2     0.900000E-01   1.00800           0   0.00000     -0.301140E-02
      4123 MEMB     34       PMPG     C36      CTL2    -0.180000       12.0110           0   0.00000     -0.301140E-02
      4124 MEMB     34       PMPG     H6X      HAL2     0.900000E-01   1.00800           0   0.00000     -0.301140E-02
      4125 MEMB     34       PMPG     H6Y      HAL2     0.900000E-01   1.00800           0   0.00000     -0.301140E-02
      4126 MEMB     34       PMPG     C37      CTL2    -0.180000       12.0110           0   0.00000     -0.301140E-02
      4127 MEMB     34       PMPG     H7X      HAL2     0.900000E-01   1.00800           0   0.00000     -0.301140E-02
      4128 MEMB     34       PMPG     H7Y      HAL2     0.900000E-01   1.00800           0   0.00000     -0.301140E-02
      4129 MEMB     34       PMPG     C38      CTL2    -0.180000       12.0110           0   0.00000     -0.301140E-02
      4130 MEMB     34       PMPG     H8X      HAL2     0.900000E-01   1.00800           0   0.00000     -0.301140E-02
      4131 MEMB     34       PMPG     H8Y      HAL2     0.900000E-01   1.00800           0   0.00000     -0.301140E-02
      4132 MEMB     34       PMPG     C39      CTL2    -0.180000       12.0110           0   0.00000     -0.301140E-02
      4133 MEMB     34       PMPG     H9X      HAL2     0.900000E-01   1.00800           0   0.00000     -0.301140E-02
      4134 MEMB     34       PMPG     H9Y      HAL2     0.900000E-01   1.00800           0   0.00000     -0.301140E-02
      4135 MEMB     34       PMPG     C310     CTL2    -0.180000       12.0110           0   0.00000     -0.301140E-02
      4136 MEMB     34       PMPG     H10X     HAL2     0.900000E-01   1.00800           0   0.00000     -0.301140E-02
      4137 MEMB     34       PMPG     H10Y     HAL2     0.900000E-01   1.00800           0   0.00000     -0.301140E-02
      4138 MEMB     34       PMPG     C311     CTL2    -0.180000       12.0110           0   0.00000     -0.301140E-02
      4139 MEMB     34       PMPG     H11X     HAL2     0.900000E-01   1.00800           0   0.00000     -0.301140E-02
      4140 MEMB     34       PMPG     H11Y     HAL2     0.900000E-01   1.00800           0   0.00000     -0.301140E-02
      4141 MEMB     34       PMPG     C312     CTL2    -0.180000       12.0110           0   0.00000     -0.301140E-02
      4142 MEMB     34       PMPG     H12X     HAL2     0.900000E-01   1.00800           0   0.00000     -0.301140E-02
      4143 MEMB     34       PMPG     H12Y     HAL2     0.900000E-01   1.00800           0   0.00000     -0.301140E-02
      4144 MEMB     34       PMPG     C313     CTL2    -0.180000       12.0110           0   0.00000     -0.301140E-02
      4145 MEMB     34       PMPG     H13X     HAL2     0.900000E-01   1.00800           0   0.00000     -0.301140E-02
      4146 MEMB     34       PMPG     H13Y     HAL2     0.900000E-01   1.00800           0   0.00000     -0.301140E-02
      4147 MEMB     34       PMPG     C314     CTL2    -0.180000       12.0110           0   0.00000     -0.301140E-02
      4148 MEMB     34       PMPG     H14X     HAL2     0.900000E-01   1.00800           0   0.00000     -0.301140E-02
      4149 MEMB     34       PMPG     H14Y     HAL2     0.900000E-01   1.00800           0   0.00000     -0.301140E-02
      4150 MEMB     34       PMPG     C315     CTL2    -0.180000       12.0110           0   0.00000     -0.301140E-02
      4151 MEMB     34       PMPG     H15X     HAL2     0.900000E-01   1.00800           0   0.00000     -0.301140E-02
      4152 MEMB     34       PMPG     H15Y     HAL2     0.900000E-01   1.00800           0   0.00000     -0.301140E-02
      4153 MEMB     34       PMPG     C316     CTL3    -0.270000       12.0110           0   0.00000     -0.301140E-02
      4154 MEMB     34       PMPG     H16X     HAL3     0.900000E-01   1.00800           0   0.00000     -0.301140E-02
      4155 MEMB     34       PMPG     H16Y     HAL3     0.900000E-01   1.00800           0   0.00000     -0.301140E-02
      4156 MEMB     34       PMPG     H16Z     HAL3     0.900000E-01   1.00800           0   0.00000     -0.301140E-02
      4157 MEMB     35       PMPE     N        NH3L    -0.300000       14.0070           0   0.00000     -0.301140E-02
      4158 MEMB     35       PMPE     HN1      HCL      0.330000       1.00800           0   0.00000     -0.301140E-02
      4159 MEMB     35       PMPE     HN2      HCL      0.330000       1.00800           0   0.00000     -0.301140E-02
      4160 MEMB     35       PMPE     HN3      HCL      0.330000       1.00800           0   0.00000     -0.301140E-02
      4161 MEMB     35       PMPE     C12      CTL2     0.130000       12.0110           0   0.00000     -0.301140E-02
      4162 MEMB     35       PMPE     H12A     HAL2     0.900000E-01   1.00800           0   0.00000     -0.301140E-02
      4163 MEMB     35       PMPE     H12B     HAL2     0.900000E-01   1.00800           0   0.00000     -0.301140E-02
      4164 MEMB     35       PMPE     C11      CTL2    -0.800000E-01   12.0110           0   0.00000     -0.301140E-02
      4165 MEMB     35       PMPE     H11A     HAL2     0.900000E-01   1.00800           0   0.00000     -0.301140E-02
      4166 MEMB     35       PMPE     H11B     HAL2     0.900000E-01   1.00800           0   0.00000     -0.301140E-02
      4167 MEMB     35       PMPE     P        PL        1.50000       30.9740           0   0.00000     -0.301140E-02
      4168 MEMB     35       PMPE     O13      O2L     -0.780000       15.9994           0   0.00000     -0.301140E-02
      4169 MEMB     35       PMPE     O14      O2L     -0.780000       15.9994           0   0.00000     -0.301140E-02
      4170 MEMB     35       PMPE     O11      OSLP    -0.570000       15.9994           0   0.00000     -0.301140E-02
      4171 MEMB     35       PMPE     O12      OSLP    -0.570000       15.9994           0   0.00000     -0.301140E-02
      4172 MEMB     35       PMPE     C1       CTL2    -0.800000E-01   12.0110           0   0.00000     -0.301140E-02
      4173 MEMB     35       PMPE     HA       HAL2     0.900000E-01   1.00800           0   0.00000     -0.301140E-02
      4174 MEMB     35       PMPE     HB       HAL2     0.900000E-01   1.00800           0   0.00000     -0.301140E-02
      4175 MEMB     35       PMPE     C2       CTL1     0.170000       12.0110           0   0.00000     -0.301140E-02
      4176 MEMB     35       PMPE     HS       HAL1     0.900000E-01   1.00800           0   0.00000     -0.301140E-02
      4177 MEMB     35       PMPE     O21      OSL     -0.490000       15.9994           0   0.00000     -0.301140E-02
      4178 MEMB     35       PMPE     C21      CL       0.900000       12.0110           0   0.00000     -0.301140E-02
      4179 MEMB     35       PMPE     O22      OBL     -0.630000       15.9994           0   0.00000     -0.301140E-02
      4180 MEMB     35       PMPE     C22      CTL2    -0.220000       12.0110           0   0.00000     -0.301140E-02
      4181 MEMB     35       PMPE     H2R      HAL2     0.900000E-01   1.00800           0   0.00000     -0.301140E-02
      4182 MEMB     35       PMPE     H2S      HAL2     0.900000E-01   1.00800           0   0.00000     -0.301140E-02
      4183 MEMB     35       PMPE     C3       CTL2     0.800000E-01   12.0110           0   0.00000     -0.301140E-02
      4184 MEMB     35       PMPE     HX       HAL2     0.900000E-01   1.00800           0   0.00000     -0.301140E-02
      4185 MEMB     35       PMPE     HY       HAL2     0.900000E-01   1.00800           0   0.00000     -0.301140E-02
      4186 MEMB     35       PMPE     O31      OSL     -0.490000       15.9994           0   0.00000     -0.301140E-02
      4187 MEMB     35       PMPE     C31      CL       0.900000       12.0110           0   0.00000     -0.301140E-02
      4188 MEMB     35       PMPE     O32      OBL     -0.630000       15.9994           0   0.00000     -0.301140E-02
      4189 MEMB     35       PMPE     C32      CTL2    -0.220000       12.0110           0   0.00000     -0.301140E-02
      4190 MEMB     35       PMPE     H2X      HAL2     0.900000E-01   1.00800           0   0.00000     -0.301140E-02
      4191 MEMB     35       PMPE     H2Y      HAL2     0.900000E-01   1.00800           0   0.00000     -0.301140E-02
      4192 MEMB     35       PMPE     C23      CTL2    -0.180000       12.0110           0   0.00000     -0.301140E-02
      4193 MEMB     35       PMPE     H3R      HAL2     0.900000E-01   1.00800           0   0.00000     -0.301140E-02
      4194 MEMB     35       PMPE     H3S      HAL2     0.900000E-01   1.00800           0   0.00000     -0.301140E-02
      4195 MEMB     35       PMPE     C24      CTL2    -0.180000       12.0110           0   0.00000     -0.301140E-02
      4196 MEMB     35       PMPE     H4R      HAL2     0.900000E-01   1.00800           0   0.00000     -0.301140E-02
      4197 MEMB     35       PMPE     H4S      HAL2     0.900000E-01   1.00800           0   0.00000     -0.301140E-02
      4198 MEMB     35       PMPE     C25      CTL2    -0.180000       12.0110           0   0.00000     -0.301140E-02
      4199 MEMB     35       PMPE     H5R      HAL2     0.900000E-01   1.00800           0   0.00000     -0.301140E-02
      4200 MEMB     35       PMPE     H5S      HAL2     0.900000E-01   1.00800           0   0.00000     -0.301140E-02
      4201 MEMB     35       PMPE     C26      CTL2    -0.180000       12.0110           0   0.00000     -0.301140E-02
      4202 MEMB     35       PMPE     H6R      HAL2     0.900000E-01   1.00800           0   0.00000     -0.301140E-02
      4203 MEMB     35       PMPE     H6S      HAL2     0.900000E-01   1.00800           0   0.00000     -0.301140E-02
      4204 MEMB     35       PMPE     C27      CTL2    -0.180000       12.0110           0   0.00000     -0.301140E-02
      4205 MEMB     35       PMPE     H7R      HAL2     0.900000E-01   1.00800           0   0.00000     -0.301140E-02
      4206 MEMB     35       PMPE     H7S      HAL2     0.900000E-01   1.00800           0   0.00000     -0.301140E-02
      4207 MEMB     35       PMPE     C28      CTL2    -0.180000       12.0110           0   0.00000     -0.301140E-02
      4208 MEMB     35       PMPE     H8R      HAL2     0.900000E-01   1.00800           0   0.00000     -0.301140E-02
      4209 MEMB     35       PMPE     H8S      HAL2     0.900000E-01   1.00800           0   0.00000     -0.301140E-02
      4210 MEMB     35       PMPE     C29      CG3RC1  -0.900000E-01   12.0110           0   0.00000     -0.301140E-02
      4211 MEMB     35       PMPE     H9R      HGA1     0.900000E-01   1.00800           0   0.00000     -0.301140E-02
      4212 MEMB     35       PMPE     C217     CG3C31  -0.180000       12.0110           0   0.00000     -0.301140E-02
      4213 MEMB     35       PMPE     H17R     HGA2     0.900000E-01   1.00800           0   0.00000     -0.301140E-02
      4214 MEMB     35       PMPE     H17S     HGA2     0.900000E-01   1.00800           0   0.00000     -0.301140E-02
      4215 MEMB     35       PMPE     C210     CG3RC1  -0.900000E-01   12.0110           0   0.00000     -0.301140E-02
      4216 MEMB     35       PMPE     H10R     HGA1     0.900000E-01   1.00800           0   0.00000     -0.301140E-02
      4217 MEMB     35       PMPE     C211     CTL2    -0.180000       12.0110           0   0.00000     -0.301140E-02
      4218 MEMB     35       PMPE     H11R     HAL2     0.900000E-01   1.00800           0   0.00000     -0.301140E-02
      4219 MEMB     35       PMPE     H11S     HAL2     0.900000E-01   1.00800           0   0.00000     -0.301140E-02
      4220 MEMB     35       PMPE     C212     CTL2    -0.180000       12.0110           0   0.00000     -0.301140E-02
      4221 MEMB     35       PMPE     H12R     HAL2     0.900000E-01   1.00800           0   0.00000     -0.301140E-02
      4222 MEMB     35       PMPE     H12S     HAL2     0.900000E-01   1.00800           0   0.00000     -0.301140E-02
      4223 MEMB     35       PMPE     C213     CTL2    -0.180000       12.0110           0   0.00000     -0.301140E-02
      4224 MEMB     35       PMPE     H13R     HAL2     0.900000E-01   1.00800           0   0.00000     -0.301140E-02
      4225 MEMB     35       PMPE     H13S     HAL2     0.900000E-01   1.00800           0   0.00000     -0.301140E-02
      4226 MEMB     35       PMPE     C214     CTL2    -0.180000       12.0110           0   0.00000     -0.301140E-02
      4227 MEMB     35       PMPE     H14R     HAL2     0.900000E-01   1.00800           0   0.00000     -0.301140E-02
      4228 MEMB     35       PMPE     H14S     HAL2     0.900000E-01   1.00800           0   0.00000     -0.301140E-02
      4229 MEMB     35       PMPE     C215     CTL2    -0.180000       12.0110           0   0.00000     -0.301140E-02
      4230 MEMB     35       PMPE     H15R     HAL2     0.900000E-01   1.00800           0   0.00000     -0.301140E-02
      4231 MEMB     35       PMPE     H15S     HAL2     0.900000E-01   1.00800           0   0.00000     -0.301140E-02
      4232 MEMB     35       PMPE     C216     CTL3    -0.270000       12.0110           0   0.00000     -0.301140E-02
      4233 MEMB     35       PMPE     H16R     HAL3     0.900000E-01   1.00800           0   0.00000     -0.301140E-02
      4234 MEMB     35       PMPE     H16S     HAL3     0.900000E-01   1.00800           0   0.00000     -0.301140E-02
      4235 MEMB     35       PMPE     H16T     HAL3     0.900000E-01   1.00800           0   0.00000     -0.301140E-02
      4236 MEMB     35       PMPE     C33      CTL2    -0.180000       12.0110           0   0.00000     -0.301140E-02
      4237 MEMB     35       PMPE     H3X      HAL2     0.900000E-01   1.00800           0   0.00000     -0.301140E-02
      4238 MEMB     35       PMPE     H3Y      HAL2     0.900000E-01   1.00800           0   0.00000     -0.301140E-02
      4239 MEMB     35       PMPE     C34      CTL2    -0.180000       12.0110           0   0.00000     -0.301140E-02
      4240 MEMB     35       PMPE     H4X      HAL2     0.900000E-01   1.00800           0   0.00000     -0.301140E-02
      4241 MEMB     35       PMPE     H4Y      HAL2     0.900000E-01   1.00800           0   0.00000     -0.301140E-02
      4242 MEMB     35       PMPE     C35      CTL2    -0.180000       12.0110           0   0.00000     -0.301140E-02
      4243 MEMB     35       PMPE     H5X      HAL2     0.900000E-01   1.00800           0   0.00000     -0.301140E-02
      4244 MEMB     35       PMPE     H5Y      HAL2     0.900000E-01   1.00800           0   0.00000     -0.301140E-02
      4245 MEMB     35       PMPE     C36      CTL2    -0.180000       12.0110           0   0.00000     -0.301140E-02
      4246 MEMB     35       PMPE     H6X      HAL2     0.900000E-01   1.00800           0   0.00000     -0.301140E-02
      4247 MEMB     35       PMPE     H6Y      HAL2     0.900000E-01   1.00800           0   0.00000     -0.301140E-02
      4248 MEMB     35       PMPE     C37      CTL2    -0.180000       12.0110           0   0.00000     -0.301140E-02
      4249 MEMB     35       PMPE     H7X      HAL2     0.900000E-01   1.00800           0   0.00000     -0.301140E-02
      4250 MEMB     35       PMPE     H7Y      HAL2     0.900000E-01   1.00800           0   0.00000     -0.301140E-02
      4251 MEMB     35       PMPE     C38      CTL2    -0.180000       12.0110           0   0.00000     -0.301140E-02
      4252 MEMB     35       PMPE     H8X      HAL2     0.900000E-01   1.00800           0   0.00000     -0.301140E-02
      4253 MEMB     35       PMPE     H8Y      HAL2     0.900000E-01   1.00800           0   0.00000     -0.301140E-02
      4254 MEMB     35       PMPE     C39      CTL2    -0.180000       12.0110           0   0.00000     -0.301140E-02
      4255 MEMB     35       PMPE     H9X      HAL2     0.900000E-01   1.00800           0   0.00000     -0.301140E-02
      4256 MEMB     35       PMPE     H9Y      HAL2     0.900000E-01   1.00800           0   0.00000     -0.301140E-02
      4257 MEMB     35       PMPE     C310     CTL2    -0.180000       12.0110           0   0.00000     -0.301140E-02
      4258 MEMB     35       PMPE     H10X     HAL2     0.900000E-01   1.00800           0   0.00000     -0.301140E-02
      4259 MEMB     35       PMPE     H10Y     HAL2     0.900000E-01   1.00800           0   0.00000     -0.301140E-02
      4260 MEMB     35       PMPE     C311     CTL2    -0.180000       12.0110           0   0.00000     -0.301140E-02
      4261 MEMB     35       PMPE     H11X     HAL2     0.900000E-01   1.00800           0   0.00000     -0.301140E-02
      4262 MEMB     35       PMPE     H11Y     HAL2     0.900000E-01   1.00800           0   0.00000     -0.301140E-02
      4263 MEMB     35       PMPE     C312     CTL2    -0.180000       12.0110           0   0.00000     -0.301140E-02
      4264 MEMB     35       PMPE     H12X     HAL2     0.900000E-01   1.00800           0   0.00000     -0.301140E-02
      4265 MEMB     35       PMPE     H12Y     HAL2     0.900000E-01   1.00800           0   0.00000     -0.301140E-02
      4266 MEMB     35       PMPE     C313     CTL2    -0.180000       12.0110           0   0.00000     -0.301140E-02
      4267 MEMB     35       PMPE     H13X     HAL2     0.900000E-01   1.00800           0   0.00000     -0.301140E-02
      4268 MEMB     35       PMPE     H13Y     HAL2     0.900000E-01   1.00800           0   0.00000     -0.301140E-02
      4269 MEMB     35       PMPE     C314     CTL2    -0.180000       12.0110           0   0.00000     -0.301140E-02
      4270 MEMB     35       PMPE     H14X     HAL2     0.900000E-01   1.00800           0   0.00000     -0.301140E-02
      4271 MEMB     35       PMPE     H14Y     HAL2     0.900000E-01   1.00800           0   0.00000     -0.301140E-02
      4272 MEMB     35       PMPE     C315     CTL2    -0.180000       12.0110           0   0.00000     -0.301140E-02
      4273 MEMB     35       PMPE     H15X     HAL2     0.900000E-01   1.00800           0   0.00000     -0.301140E-02
      4274 MEMB     35       PMPE     H15Y     HAL2     0.900000E-01   1.00800           0   0.00000     -0.301140E-02
      4275 MEMB     35       PMPE     C316     CTL3    -0.270000       12.0110           0   0.00000     -0.301140E-02
      4276 MEMB     35       PMPE     H16X     HAL3     0.900000E-01   1.00800           0   0.00000     -0.301140E-02
      4277 MEMB     35       PMPE     H16Y     HAL3     0.900000E-01   1.00800           0   0.00000     -0.301140E-02
      4278 MEMB     35       PMPE     H16Z     HAL3     0.900000E-01   1.00800           0   0.00000     -0.301140E-02
      4279 MEMB     36       POPE     N        NH3L    -0.300000       14.0070           0   0.00000     -0.301140E-02
      4280 MEMB     36       POPE     HN1      HCL      0.330000       1.00800           0   0.00000     -0.301140E-02
      4281 MEMB     36       POPE     HN2      HCL      0.330000       1.00800           0   0.00000     -0.301140E-02
      4282 MEMB     36       POPE     HN3      HCL      0.330000       1.00800           0   0.00000     -0.301140E-02
      4283 MEMB     36       POPE     C12      CTL2     0.130000       12.0110           0   0.00000     -0.301140E-02
      4284 MEMB     36       POPE     H12A     HAL2     0.900000E-01   1.00800           0   0.00000     -0.301140E-02
      4285 MEMB     36       POPE     H12B     HAL2     0.900000E-01   1.00800           0   0.00000     -0.301140E-02
      4286 MEMB     36       POPE     C11      CTL2    -0.800000E-01   12.0110           0   0.00000     -0.301140E-02
      4287 MEMB     36       POPE     H11A     HAL2     0.900000E-01   1.00800           0   0.00000     -0.301140E-02
      4288 MEMB     36       POPE     H11B     HAL2     0.900000E-01   1.00800           0   0.00000     -0.301140E-02
      4289 MEMB     36       POPE     P        PL        1.50000       30.9740           0   0.00000     -0.301140E-02
      4290 MEMB     36       POPE     O13      O2L     -0.780000       15.9994           0   0.00000     -0.301140E-02
      4291 MEMB     36       POPE     O14      O2L     -0.780000       15.9994           0   0.00000     -0.301140E-02
      4292 MEMB     36       POPE     O11      OSLP    -0.570000       15.9994           0   0.00000     -0.301140E-02
      4293 MEMB     36       POPE     O12      OSLP    -0.570000       15.9994           0   0.00000     -0.301140E-02
      4294 MEMB     36       POPE     C1       CTL2    -0.800000E-01   12.0110           0   0.00000     -0.301140E-02
      4295 MEMB     36       POPE     HA       HAL2     0.900000E-01   1.00800           0   0.00000     -0.301140E-02
      4296 MEMB     36       POPE     HB       HAL2     0.900000E-01   1.00800           0   0.00000     -0.301140E-02
      4297 MEMB     36       POPE     C2       CTL1     0.170000       12.0110           0   0.00000     -0.301140E-02
      4298 MEMB     36       POPE     HS       HAL1     0.900000E-01   1.00800           0   0.00000     -0.301140E-02
      4299 MEMB     36       POPE     O21      OSL     -0.490000       15.9994           0   0.00000     -0.301140E-02
      4300 MEMB     36       POPE     C21      CL       0.900000       12.0110           0   0.00000     -0.301140E-02
      4301 MEMB     36       POPE     O22      OBL     -0.630000       15.9994           0   0.00000     -0.301140E-02
      4302 MEMB     36       POPE     C22      CTL2    -0.220000       12.0110           0   0.00000     -0.301140E-02
      4303 MEMB     36       POPE     H2R      HAL2     0.900000E-01   1.00800           0   0.00000     -0.301140E-02
      4304 MEMB     36       POPE     H2S      HAL2     0.900000E-01   1.00800           0   0.00000     -0.301140E-02
      4305 MEMB     36       POPE     C3       CTL2     0.800000E-01   12.0110           0   0.00000     -0.301140E-02
      4306 MEMB     36       POPE     HX       HAL2     0.900000E-01   1.00800           0   0.00000     -0.301140E-02
      4307 MEMB     36       POPE     HY       HAL2     0.900000E-01   1.00800           0   0.00000     -0.301140E-02
      4308 MEMB     36       POPE     O31      OSL     -0.490000       15.9994           0   0.00000     -0.301140E-02
      4309 MEMB     36       POPE     C31      CL       0.900000       12.0110           0   0.00000     -0.301140E-02
      4310 MEMB     36       POPE     O32      OBL     -0.630000       15.9994           0   0.00000     -0.301140E-02
      4311 MEMB     36       POPE     C32      CTL2    -0.220000       12.0110           0   0.00000     -0.301140E-02
      4312 MEMB     36       POPE     H2X      HAL2     0.900000E-01   1.00800           0   0.00000     -0.301140E-02
      4313 MEMB     36       POPE     H2Y      HAL2     0.900000E-01   1.00800           0   0.00000     -0.301140E-02
      4314 MEMB     36       POPE     C23      CTL2    -0.180000       12.0110           0   0.00000     -0.301140E-02
      4315 MEMB     36       POPE     H3R      HAL2     0.900000E-01   1.00800           0   0.00000     -0.301140E-02
      4316 MEMB     36       POPE     H3S      HAL2     0.900000E-01   1.00800           0   0.00000     -0.301140E-02
      4317 MEMB     36       POPE     C24      CTL2    -0.180000       12.0110           0   0.00000     -0.301140E-02
      4318 MEMB     36       POPE     H4R      HAL2     0.900000E-01   1.00800           0   0.00000     -0.301140E-02
      4319 MEMB     36       POPE     H4S      HAL2     0.900000E-01   1.00800           0   0.00000     -0.301140E-02
      4320 MEMB     36       POPE     C25      CTL2    -0.180000       12.0110           0   0.00000     -0.301140E-02
      4321 MEMB     36       POPE     H5R      HAL2     0.900000E-01   1.00800           0   0.00000     -0.301140E-02
      4322 MEMB     36       POPE     H5S      HAL2     0.900000E-01   1.00800           0   0.00000     -0.301140E-02
      4323 MEMB     36       POPE     C26      CTL2    -0.180000       12.0110           0   0.00000     -0.301140E-02
      4324 MEMB     36       POPE     H6R      HAL2     0.900000E-01   1.00800           0   0.00000     -0.301140E-02
      4325 MEMB     36       POPE     H6S      HAL2     0.900000E-01   1.00800           0   0.00000     -0.301140E-02
      4326 MEMB     36       POPE     C27      CTL2    -0.180000       12.0110           0   0.00000     -0.301140E-02
      4327 MEMB     36       POPE     H7R      HAL2     0.900000E-01   1.00800           0   0.00000     -0.301140E-02
      4328 MEMB     36       POPE     H7S      HAL2     0.900000E-01   1.00800           0   0.00000     -0.301140E-02
      4329 MEMB     36       POPE     C28      CTL2    -0.180000       12.0110           0   0.00000     -0.301140E-02
      4330 MEMB     36       POPE     H8R      HAL2     0.900000E-01   1.00800           0   0.00000     -0.301140E-02
      4331 MEMB     36       POPE     H8S      HAL2     0.900000E-01   1.00800           0   0.00000     -0.301140E-02
      4332 MEMB     36       POPE     C29      CEL1    -0.150000       12.0110           0   0.00000     -0.301140E-02
      4333 MEMB     36       POPE     H91      HEL1     0.150000       1.00800           0   0.00000     -0.301140E-02
      4334 MEMB     36       POPE     C210     CEL1    -0.150000       12.0110           0   0.00000     -0.301140E-02
      4335 MEMB     36       POPE     H101     HEL1     0.150000       1.00800           0   0.00000     -0.301140E-02
      4336 MEMB     36       POPE     C211     CTL2    -0.180000       12.0110           0   0.00000     -0.301140E-02
      4337 MEMB     36       POPE     H11R     HAL2     0.900000E-01   1.00800           0   0.00000     -0.301140E-02
      4338 MEMB     36       POPE     H11S     HAL2     0.900000E-01   1.00800           0   0.00000     -0.301140E-02
      4339 MEMB     36       POPE     C212     CTL2    -0.180000       12.0110           0   0.00000     -0.301140E-02
      4340 MEMB     36       POPE     H12R     HAL2     0.900000E-01   1.00800           0   0.00000     -0.301140E-02
      4341 MEMB     36       POPE     H12S     HAL2     0.900000E-01   1.00800           0   0.00000     -0.301140E-02
      4342 MEMB     36       POPE     C213     CTL2    -0.180000       12.0110           0   0.00000     -0.301140E-02
      4343 MEMB     36       POPE     H13R     HAL2     0.900000E-01   1.00800           0   0.00000     -0.301140E-02
      4344 MEMB     36       POPE     H13S     HAL2     0.900000E-01   1.00800           0   0.00000     -0.301140E-02
      4345 MEMB     36       POPE     C214     CTL2    -0.180000       12.0110           0   0.00000     -0.301140E-02
      4346 MEMB     36       POPE     H14R     HAL2     0.900000E-01   1.00800           0   0.00000     -0.301140E-02
      4347 MEMB     36       POPE     H14S     HAL2     0.900000E-01   1.00800           0   0.00000     -0.301140E-02
      4348 MEMB     36       POPE     C215     CTL2    -0.180000       12.0110           0   0.00000     -0.301140E-02
      4349 MEMB     36       POPE     H15R     HAL2     0.900000E-01   1.00800           0   0.00000     -0.301140E-02
      4350 MEMB     36       POPE     H15S     HAL2     0.900000E-01   1.00800           0   0.00000     -0.301140E-02
      4351 MEMB     36       POPE     C216     CTL2    -0.180000       12.0110           0   0.00000     -0.301140E-02
      4352 MEMB     36       POPE     H16R     HAL2     0.900000E-01   1.00800           0   0.00000     -0.301140E-02
      4353 MEMB     36       POPE     H16S     HAL2     0.900000E-01   1.00800           0   0.00000     -0.301140E-02
      4354 MEMB     36       POPE     C217     CTL2    -0.180000       12.0110           0   0.00000     -0.301140E-02
      4355 MEMB     36       POPE     H17R     HAL2     0.900000E-01   1.00800           0   0.00000     -0.301140E-02
      4356 MEMB     36       POPE     H17S     HAL2     0.900000E-01   1.00800           0   0.00000     -0.301140E-02
      4357 MEMB     36       POPE     C218     CTL3    -0.270000       12.0110           0   0.00000     -0.301140E-02
      4358 MEMB     36       POPE     H18R     HAL3     0.900000E-01   1.00800           0   0.00000     -0.301140E-02
      4359 MEMB     36       POPE     H18S     HAL3     0.900000E-01   1.00800           0   0.00000     -0.301140E-02
      4360 MEMB     36       POPE     H18T     HAL3     0.900000E-01   1.00800           0   0.00000     -0.301140E-02
      4361 MEMB     36       POPE     C33      CTL2    -0.180000       12.0110           0   0.00000     -0.301140E-02
      4362 MEMB     36       POPE     H3X      HAL2     0.900000E-01   1.00800           0   0.00000     -0.301140E-02
      4363 MEMB     36       POPE     H3Y      HAL2     0.900000E-01   1.00800           0   0.00000     -0.301140E-02
      4364 MEMB     36       POPE     C34      CTL2    -0.180000       12.0110           0   0.00000     -0.301140E-02
      4365 MEMB     36       POPE     H4X      HAL2     0.900000E-01   1.00800           0   0.00000     -0.301140E-02
      4366 MEMB     36       POPE     H4Y      HAL2     0.900000E-01   1.00800           0   0.00000     -0.301140E-02
      4367 MEMB     36       POPE     C35      CTL2    -0.180000       12.0110           0   0.00000     -0.301140E-02
      4368 MEMB     36       POPE     H5X      HAL2     0.900000E-01   1.00800           0   0.00000     -0.301140E-02
      4369 MEMB     36       POPE     H5Y      HAL2     0.900000E-01   1.00800           0   0.00000     -0.301140E-02
      4370 MEMB     36       POPE     C36      CTL2    -0.180000       12.0110           0   0.00000     -0.301140E-02
      4371 MEMB     36       POPE     H6X      HAL2     0.900000E-01   1.00800           0   0.00000     -0.301140E-02
      4372 MEMB     36       POPE     H6Y      HAL2     0.900000E-01   1.00800           0   0.00000     -0.301140E-02
      4373 MEMB     36       POPE     C37      CTL2    -0.180000       12.0110           0   0.00000     -0.301140E-02
      4374 MEMB     36       POPE     H7X      HAL2     0.900000E-01   1.00800           0   0.00000     -0.301140E-02
      4375 MEMB     36       POPE     H7Y      HAL2     0.900000E-01   1.00800           0   0.00000     -0.301140E-02
      4376 MEMB     36       POPE     C38      CTL2    -0.180000       12.0110           0   0.00000     -0.301140E-02
      4377 MEMB     36       POPE     H8X      HAL2     0.900000E-01   1.00800           0   0.00000     -0.301140E-02
      4378 MEMB     36       POPE     H8Y      HAL2     0.900000E-01   1.00800           0   0.00000     -0.301140E-02
      4379 MEMB     36       POPE     C39      CTL2    -0.180000       12.0110           0   0.00000     -0.301140E-02
      4380 MEMB     36       POPE     H9X      HAL2     0.900000E-01   1.00800           0   0.00000     -0.301140E-02
      4381 MEMB     36       POPE     H9Y      HAL2     0.900000E-01   1.00800           0   0.00000     -0.301140E-02
      4382 MEMB     36       POPE     C310     CTL2    -0.180000       12.0110           0   0.00000     -0.301140E-02
      4383 MEMB     36       POPE     H10X     HAL2     0.900000E-01   1.00800           0   0.00000     -0.301140E-02
      4384 MEMB     36       POPE     H10Y     HAL2     0.900000E-01   1.00800           0   0.00000     -0.301140E-02
      4385 MEMB     36       POPE     C311     CTL2    -0.180000       12.0110           0   0.00000     -0.301140E-02
      4386 MEMB     36       POPE     H11X     HAL2     0.900000E-01   1.00800           0   0.00000     -0.301140E-02
      4387 MEMB     36       POPE     H11Y     HAL2     0.900000E-01   1.00800           0   0.00000     -0.301140E-02
      4388 MEMB     36       POPE     C312     CTL2    -0.180000       12.0110           0   0.00000     -0.301140E-02
      4389 MEMB     36       POPE     H12X     HAL2     0.900000E-01   1.00800           0   0.00000     -0.301140E-02
      4390 MEMB     36       POPE     H12Y     HAL2     0.900000E-01   1.00800           0   0.00000     -0.301140E-02
      4391 MEMB     36       POPE     C313     CTL2    -0.180000       12.0110           0   0.00000     -0.301140E-02
      4392 MEMB     36       POPE     H13X     HAL2     0.900000E-01   1.00800           0   0.00000     -0.301140E-02
      4393 MEMB     36       POPE     H13Y     HAL2     0.900000E-01   1.00800           0   0.00000     -0.301140E-02
      4394 MEMB     36       POPE     C314     CTL2    -0.180000       12.0110           0   0.00000     -0.301140E-02
      4395 MEMB     36       POPE     H14X     HAL2     0.900000E-01   1.00800           0   0.00000     -0.301140E-02
      4396 MEMB     36       POPE     H14Y     HAL2     0.900000E-01   1.00800           0   0.00000     -0.301140E-02
      4397 MEMB     36       POPE     C315     CTL2    -0.180000       12.0110           0   0.00000     -0.301140E-02
      4398 MEMB     36       POPE     H15X     HAL2     0.900000E-01   1.00800           0   0.00000     -0.301140E-02
      4399 MEMB     36       POPE     H15Y     HAL2     0.900000E-01   1.00800           0   0.00000     -0.301140E-02
      4400 MEMB     36       POPE     C316     CTL3    -0.270000       12.0110           0   0.00000     -0.301140E-02
      4401 MEMB     36       POPE     H16X     HAL3     0.900000E-01   1.00800           0   0.00000     -0.301140E-02
      4402 MEMB     36       POPE     H16Y     HAL3     0.900000E-01   1.00800           0   0.00000     -0.301140E-02
      4403 MEMB     36       POPE     H16Z     HAL3     0.900000E-01   1.00800           0   0.00000     -0.301140E-02
      4404 MEMB     37       OYPE     N        NH3L    -0.300000       14.0070           0   0.00000     -0.301140E-02
      4405 MEMB     37       OYPE     HN1      HCL      0.330000       1.00800           0   0.00000     -0.301140E-02
      4406 MEMB     37       OYPE     HN2      HCL      0.330000       1.00800           0   0.00000     -0.301140E-02
      4407 MEMB     37       OYPE     HN3      HCL      0.330000       1.00800           0   0.00000     -0.301140E-02
      4408 MEMB     37       OYPE     C12      CTL2     0.130000       12.0110           0   0.00000     -0.301140E-02
      4409 MEMB     37       OYPE     H12A     HAL2     0.900000E-01   1.00800           0   0.00000     -0.301140E-02
      4410 MEMB     37       OYPE     H12B     HAL2     0.900000E-01   1.00800           0   0.00000     -0.301140E-02
      4411 MEMB     37       OYPE     C11      CTL2    -0.800000E-01   12.0110           0   0.00000     -0.301140E-02
      4412 MEMB     37       OYPE     H11A     HAL2     0.900000E-01   1.00800           0   0.00000     -0.301140E-02
      4413 MEMB     37       OYPE     H11B     HAL2     0.900000E-01   1.00800           0   0.00000     -0.301140E-02
      4414 MEMB     37       OYPE     P        PL        1.50000       30.9740           0   0.00000     -0.301140E-02
      4415 MEMB     37       OYPE     O13      O2L     -0.780000       15.9994           0   0.00000     -0.301140E-02
      4416 MEMB     37       OYPE     O14      O2L     -0.780000       15.9994           0   0.00000     -0.301140E-02
      4417 MEMB     37       OYPE     O11      OSLP    -0.570000       15.9994           0   0.00000     -0.301140E-02
      4418 MEMB     37       OYPE     O12      OSLP    -0.570000       15.9994           0   0.00000     -0.301140E-02
      4419 MEMB     37       OYPE     C1       CTL2    -0.800000E-01   12.0110           0   0.00000     -0.301140E-02
      4420 MEMB     37       OYPE     HA       HAL2     0.900000E-01   1.00800           0   0.00000     -0.301140E-02
      4421 MEMB     37       OYPE     HB       HAL2     0.900000E-01   1.00800           0   0.00000     -0.301140E-02
      4422 MEMB     37       OYPE     C2       CTL1     0.170000       12.0110           0   0.00000     -0.301140E-02
      4423 MEMB     37       OYPE     HS       HAL1     0.900000E-01   1.00800           0   0.00000     -0.301140E-02
      4424 MEMB     37       OYPE     O21      OSL     -0.490000       15.9994           0   0.00000     -0.301140E-02
      4425 MEMB     37       OYPE     C21      CL       0.900000       12.0110           0   0.00000     -0.301140E-02
      4426 MEMB     37       OYPE     O22      OBL     -0.630000       15.9994           0   0.00000     -0.301140E-02
      4427 MEMB     37       OYPE     C22      CTL2    -0.220000       12.0110           0   0.00000     -0.301140E-02
      4428 MEMB     37       OYPE     H2R      HAL2     0.900000E-01   1.00800           0   0.00000     -0.301140E-02
      4429 MEMB     37       OYPE     H2S      HAL2     0.900000E-01   1.00800           0   0.00000     -0.301140E-02
      4430 MEMB     37       OYPE     C3       CTL2     0.800000E-01   12.0110           0   0.00000     -0.301140E-02
      4431 MEMB     37       OYPE     HX       HAL2     0.900000E-01   1.00800           0   0.00000     -0.301140E-02
      4432 MEMB     37       OYPE     HY       HAL2     0.900000E-01   1.00800           0   0.00000     -0.301140E-02
      4433 MEMB     37       OYPE     O31      OSL     -0.490000       15.9994           0   0.00000     -0.301140E-02
      4434 MEMB     37       OYPE     C31      CL       0.900000       12.0110           0   0.00000     -0.301140E-02
      4435 MEMB     37       OYPE     O32      OBL     -0.630000       15.9994           0   0.00000     -0.301140E-02
      4436 MEMB     37       OYPE     C32      CTL2    -0.220000       12.0110           0   0.00000     -0.301140E-02
      4437 MEMB     37       OYPE     H2X      HAL2     0.900000E-01   1.00800           0   0.00000     -0.301140E-02
      4438 MEMB     37       OYPE     H2Y      HAL2     0.900000E-01   1.00800           0   0.00000     -0.301140E-02
      4439 MEMB     37       OYPE     C23      CTL2    -0.180000       12.0110           0   0.00000     -0.301140E-02
      4440 MEMB     37       OYPE     H3R      HAL2     0.900000E-01   1.00800           0   0.00000     -0.301140E-02
      4441 MEMB     37       OYPE     H3S      HAL2     0.900000E-01   1.00800           0   0.00000     -0.301140E-02
      4442 MEMB     37       OYPE     C24      CTL2    -0.180000       12.0110           0   0.00000     -0.301140E-02
      4443 MEMB     37       OYPE     H4R      HAL2     0.900000E-01   1.00800           0   0.00000     -0.301140E-02
      4444 MEMB     37       OYPE     H4S      HAL2     0.900000E-01   1.00800           0   0.00000     -0.301140E-02
      4445 MEMB     37       OYPE     C25      CTL2    -0.180000       12.0110           0   0.00000     -0.301140E-02
      4446 MEMB     37       OYPE     H5R      HAL2     0.900000E-01   1.00800           0   0.00000     -0.301140E-02
      4447 MEMB     37       OYPE     H5S      HAL2     0.900000E-01   1.00800           0   0.00000     -0.301140E-02
      4448 MEMB     37       OYPE     C26      CTL2    -0.180000       12.0110           0   0.00000     -0.301140E-02
      4449 MEMB     37       OYPE     H6R      HAL2     0.900000E-01   1.00800           0   0.00000     -0.301140E-02
      4450 MEMB     37       OYPE     H6S      HAL2     0.900000E-01   1.00800           0   0.00000     -0.301140E-02
      4451 MEMB     37       OYPE     C27      CTL2    -0.180000       12.0110           0   0.00000     -0.301140E-02
      4452 MEMB     37       OYPE     H7R      HAL2     0.900000E-01   1.00800           0   0.00000     -0.301140E-02
      4453 MEMB     37       OYPE     H7S      HAL2     0.900000E-01   1.00800           0   0.00000     -0.301140E-02
      4454 MEMB     37       OYPE     C28      CTL2    -0.180000       12.0110           0   0.00000     -0.301140E-02
      4455 MEMB     37       OYPE     H8R      HAL2     0.900000E-01   1.00800           0   0.00000     -0.301140E-02
      4456 MEMB     37       OYPE     H8S      HAL2     0.900000E-01   1.00800           0   0.00000     -0.301140E-02
      4457 MEMB     37       OYPE     C29      CEL1    -0.150000       12.0110           0   0.00000     -0.301140E-02
      4458 MEMB     37       OYPE     H9R      HEL1     0.150000       1.00800           0   0.00000     -0.301140E-02
      4459 MEMB     37       OYPE     C210     CEL1    -0.150000       12.0110           0   0.00000     -0.301140E-02
      4460 MEMB     37       OYPE     H10R     HEL1     0.150000       1.00800           0   0.00000     -0.301140E-02
      4461 MEMB     37       OYPE     C211     CTL2    -0.180000       12.0110           0   0.00000     -0.301140E-02
      4462 MEMB     37       OYPE     H11R     HAL2     0.900000E-01   1.00800           0   0.00000     -0.301140E-02
      4463 MEMB     37       OYPE     H11S     HAL2     0.900000E-01   1.00800           0   0.00000     -0.301140E-02
      4464 MEMB     37       OYPE     C212     CTL2    -0.180000       12.0110           0   0.00000     -0.301140E-02
      4465 MEMB     37       OYPE     H12R     HAL2     0.900000E-01   1.00800           0   0.00000     -0.301140E-02
      4466 MEMB     37       OYPE     H12S     HAL2     0.900000E-01   1.00800           0   0.00000     -0.301140E-02
      4467 MEMB     37       OYPE     C213     CTL2    -0.180000       12.0110           0   0.00000     -0.301140E-02
      4468 MEMB     37       OYPE     H13R     HAL2     0.900000E-01   1.00800           0   0.00000     -0.301140E-02
      4469 MEMB     37       OYPE     H13S     HAL2     0.900000E-01   1.00800           0   0.00000     -0.301140E-02
      4470 MEMB     37       OYPE     C214     CTL2    -0.180000       12.0110           0   0.00000     -0.301140E-02
      4471 MEMB     37       OYPE     H14R     HAL2     0.900000E-01   1.00800           0   0.00000     -0.301140E-02
      4472 MEMB     37       OYPE     H14S     HAL2     0.900000E-01   1.00800           0   0.00000     -0.301140E-02
      4473 MEMB     37       OYPE     C215     CTL2    -0.180000       12.0110           0   0.00000     -0.301140E-02
      4474 MEMB     37       OYPE     H15R     HAL2     0.900000E-01   1.00800           0   0.00000     -0.301140E-02
      4475 MEMB     37       OYPE     H15S     HAL2     0.900000E-01   1.00800           0   0.00000     -0.301140E-02
      4476 MEMB     37       OYPE     C216     CTL3    -0.270000       12.0110           0   0.00000     -0.301140E-02
      4477 MEMB     37       OYPE     H16R     HAL3     0.900000E-01   1.00800           0   0.00000     -0.301140E-02
      4478 MEMB     37       OYPE     H16S     HAL3     0.900000E-01   1.00800           0   0.00000     -0.301140E-02
      4479 MEMB     37       OYPE     H16T     HAL3     0.900000E-01   1.00800           0   0.00000     -0.301140E-02
      4480 MEMB     37       OYPE     C33      CTL2    -0.180000       12.0110           0   0.00000     -0.301140E-02
      4481 MEMB     37       OYPE     H3X      HAL2     0.900000E-01   1.00800           0   0.00000     -0.301140E-02
      4482 MEMB     37       OYPE     H3Y      HAL2     0.900000E-01   1.00800           0   0.00000     -0.301140E-02
      4483 MEMB     37       OYPE     C34      CTL2    -0.180000       12.0110           0   0.00000     -0.301140E-02
      4484 MEMB     37       OYPE     H4X      HAL2     0.900000E-01   1.00800           0   0.00000     -0.301140E-02
      4485 MEMB     37       OYPE     H4Y      HAL2     0.900000E-01   1.00800           0   0.00000     -0.301140E-02
      4486 MEMB     37       OYPE     C35      CTL2    -0.180000       12.0110           0   0.00000     -0.301140E-02
      4487 MEMB     37       OYPE     H5X      HAL2     0.900000E-01   1.00800           0   0.00000     -0.301140E-02
      4488 MEMB     37       OYPE     H5Y      HAL2     0.900000E-01   1.00800           0   0.00000     -0.301140E-02
      4489 MEMB     37       OYPE     C36      CTL2    -0.180000       12.0110           0   0.00000     -0.301140E-02
      4490 MEMB     37       OYPE     H6X      HAL2     0.900000E-01   1.00800           0   0.00000     -0.301140E-02
      4491 MEMB     37       OYPE     H6Y      HAL2     0.900000E-01   1.00800           0   0.00000     -0.301140E-02
      4492 MEMB     37       OYPE     C37      CTL2    -0.180000       12.0110           0   0.00000     -0.301140E-02
      4493 MEMB     37       OYPE     H7X      HAL2     0.900000E-01   1.00800           0   0.00000     -0.301140E-02
      4494 MEMB     37       OYPE     H7Y      HAL2     0.900000E-01   1.00800           0   0.00000     -0.301140E-02
      4495 MEMB     37       OYPE     C38      CTL2    -0.180000       12.0110           0   0.00000     -0.301140E-02
      4496 MEMB     37       OYPE     H8X      HAL2     0.900000E-01   1.00800           0   0.00000     -0.301140E-02
      4497 MEMB     37       OYPE     H8Y      HAL2     0.900000E-01   1.00800           0   0.00000     -0.301140E-02
      4498 MEMB     37       OYPE     C39      CEL1    -0.150000       12.0110           0   0.00000     -0.301140E-02
      4499 MEMB     37       OYPE     H9X      HEL1     0.150000       1.00800           0   0.00000     -0.301140E-02
      4500 MEMB     37       OYPE     C310     CEL1    -0.150000       12.0110           0   0.00000     -0.301140E-02
      4501 MEMB     37       OYPE     H10X     HEL1     0.150000       1.00800           0   0.00000     -0.301140E-02
      4502 MEMB     37       OYPE     C311     CTL2    -0.180000       12.0110           0   0.00000     -0.301140E-02
      4503 MEMB     37       OYPE     H11X     HAL2     0.900000E-01   1.00800           0   0.00000     -0.301140E-02
      4504 MEMB     37       OYPE     H11Y     HAL2     0.900000E-01   1.00800           0   0.00000     -0.301140E-02
      4505 MEMB     37       OYPE     C312     CTL2    -0.180000       12.0110           0   0.00000     -0.301140E-02
      4506 MEMB     37       OYPE     H12X     HAL2     0.900000E-01   1.00800           0   0.00000     -0.301140E-02
      4507 MEMB     37       OYPE     H12Y     HAL2     0.900000E-01   1.00800           0   0.00000     -0.301140E-02
      4508 MEMB     37       OYPE     C313     CTL2    -0.180000       12.0110           0   0.00000     -0.301140E-02
      4509 MEMB     37       OYPE     H13X     HAL2     0.900000E-01   1.00800           0   0.00000     -0.301140E-02
      4510 MEMB     37       OYPE     H13Y     HAL2     0.900000E-01   1.00800           0   0.00000     -0.301140E-02
      4511 MEMB     37       OYPE     C314     CTL2    -0.180000       12.0110           0   0.00000     -0.301140E-02
      4512 MEMB     37       OYPE     H14X     HAL2     0.900000E-01   1.00800           0   0.00000     -0.301140E-02
      4513 MEMB     37       OYPE     H14Y     HAL2     0.900000E-01   1.00800           0   0.00000     -0.301140E-02
      4514 MEMB     37       OYPE     C315     CTL2    -0.180000       12.0110           0   0.00000     -0.301140E-02
      4515 MEMB     37       OYPE     H15X     HAL2     0.900000E-01   1.00800           0   0.00000     -0.301140E-02
      4516 MEMB     37       OYPE     H15Y     HAL2     0.900000E-01   1.00800           0   0.00000     -0.301140E-02
      4517 MEMB     37       OYPE     C316     CTL2    -0.180000       12.0110           0   0.00000     -0.301140E-02
      4518 MEMB     37       OYPE     H16X     HAL2     0.900000E-01   1.00800           0   0.00000     -0.301140E-02
      4519 MEMB     37       OYPE     H16Y     HAL2     0.900000E-01   1.00800           0   0.00000     -0.301140E-02
      4520 MEMB     37       OYPE     C317     CTL2    -0.180000       12.0110           0   0.00000     -0.301140E-02
      4521 MEMB     37       OYPE     H17X     HAL2     0.900000E-01   1.00800           0   0.00000     -0.301140E-02
      4522 MEMB     37       OYPE     H17Y     HAL2     0.900000E-01   1.00800           0   0.00000     -0.301140E-02
      4523 MEMB     37       OYPE     C318     CTL3    -0.270000       12.0110           0   0.00000     -0.301140E-02
      4524 MEMB     37       OYPE     H18X     HAL3     0.900000E-01   1.00800           0   0.00000     -0.301140E-02
      4525 MEMB     37       OYPE     H18Y     HAL3     0.900000E-01   1.00800           0   0.00000     -0.301140E-02
      4526 MEMB     37       OYPE     H18Z     HAL3     0.900000E-01   1.00800           0   0.00000     -0.301140E-02
      4527 MEMB     38       PMPE     N        NH3L    -0.300000       14.0070           0   0.00000     -0.301140E-02
      4528 MEMB     38       PMPE     HN1      HCL      0.330000       1.00800           0   0.00000     -0.301140E-02
      4529 MEMB     38       PMPE     HN2      HCL      0.330000       1.00800           0   0.00000     -0.301140E-02
      4530 MEMB     38       PMPE     HN3      HCL      0.330000       1.00800           0   0.00000     -0.301140E-02
      4531 MEMB     38       PMPE     C12      CTL2     0.130000       12.0110           0   0.00000     -0.301140E-02
      4532 MEMB     38       PMPE     H12A     HAL2     0.900000E-01   1.00800           0   0.00000     -0.301140E-02
      4533 MEMB     38       PMPE     H12B     HAL2     0.900000E-01   1.00800           0   0.00000     -0.301140E-02
      4534 MEMB     38       PMPE     C11      CTL2    -0.800000E-01   12.0110           0   0.00000     -0.301140E-02
      4535 MEMB     38       PMPE     H11A     HAL2     0.900000E-01   1.00800           0   0.00000     -0.301140E-02
      4536 MEMB     38       PMPE     H11B     HAL2     0.900000E-01   1.00800           0   0.00000     -0.301140E-02
      4537 MEMB     38       PMPE     P        PL        1.50000       30.9740           0   0.00000     -0.301140E-02
      4538 MEMB     38       PMPE     O13      O2L     -0.780000       15.9994           0   0.00000     -0.301140E-02
      4539 MEMB     38       PMPE     O14      O2L     -0.780000       15.9994           0   0.00000     -0.301140E-02
      4540 MEMB     38       PMPE     O11      OSLP    -0.570000       15.9994           0   0.00000     -0.301140E-02
      4541 MEMB     38       PMPE     O12      OSLP    -0.570000       15.9994           0   0.00000     -0.301140E-02
      4542 MEMB     38       PMPE     C1       CTL2    -0.800000E-01   12.0110           0   0.00000     -0.301140E-02
      4543 MEMB     38       PMPE     HA       HAL2     0.900000E-01   1.00800           0   0.00000     -0.301140E-02
      4544 MEMB     38       PMPE     HB       HAL2     0.900000E-01   1.00800           0   0.00000     -0.301140E-02
      4545 MEMB     38       PMPE     C2       CTL1     0.170000       12.0110           0   0.00000     -0.301140E-02
      4546 MEMB     38       PMPE     HS       HAL1     0.900000E-01   1.00800           0   0.00000     -0.301140E-02
      4547 MEMB     38       PMPE     O21      OSL     -0.490000       15.9994           0   0.00000     -0.301140E-02
      4548 MEMB     38       PMPE     C21      CL       0.900000       12.0110           0   0.00000     -0.301140E-02
      4549 MEMB     38       PMPE     O22      OBL     -0.630000       15.9994           0   0.00000     -0.301140E-02
      4550 MEMB     38       PMPE     C22      CTL2    -0.220000       12.0110           0   0.00000     -0.301140E-02
      4551 MEMB     38       PMPE     H2R      HAL2     0.900000E-01   1.00800           0   0.00000     -0.301140E-02
      4552 MEMB     38       PMPE     H2S      HAL2     0.900000E-01   1.00800           0   0.00000     -0.301140E-02
      4553 MEMB     38       PMPE     C3       CTL2     0.800000E-01   12.0110           0   0.00000     -0.301140E-02
      4554 MEMB     38       PMPE     HX       HAL2     0.900000E-01   1.00800           0   0.00000     -0.301140E-02
      4555 MEMB     38       PMPE     HY       HAL2     0.900000E-01   1.00800           0   0.00000     -0.301140E-02
      4556 MEMB     38       PMPE     O31      OSL     -0.490000       15.9994           0   0.00000     -0.301140E-02
      4557 MEMB     38       PMPE     C31      CL       0.900000       12.0110           0   0.00000     -0.301140E-02
      4558 MEMB     38       PMPE     O32      OBL     -0.630000       15.9994           0   0.00000     -0.301140E-02
      4559 MEMB     38       PMPE     C32      CTL2    -0.220000       12.0110           0   0.00000     -0.301140E-02
      4560 MEMB     38       PMPE     H2X      HAL2     0.900000E-01   1.00800           0   0.00000     -0.301140E-02
      4561 MEMB     38       PMPE     H2Y      HAL2     0.900000E-01   1.00800           0   0.00000     -0.301140E-02
      4562 MEMB     38       PMPE     C23      CTL2    -0.180000       12.0110           0   0.00000     -0.301140E-02
      4563 MEMB     38       PMPE     H3R      HAL2     0.900000E-01   1.00800           0   0.00000     -0.301140E-02
      4564 MEMB     38       PMPE     H3S      HAL2     0.900000E-01   1.00800           0   0.00000     -0.301140E-02
      4565 MEMB     38       PMPE     C24      CTL2    -0.180000       12.0110           0   0.00000     -0.301140E-02
      4566 MEMB     38       PMPE     H4R      HAL2     0.900000E-01   1.00800           0   0.00000     -0.301140E-02
      4567 MEMB     38       PMPE     H4S      HAL2     0.900000E-01   1.00800           0   0.00000     -0.301140E-02
      4568 MEMB     38       PMPE     C25      CTL2    -0.180000       12.0110           0   0.00000     -0.301140E-02
      4569 MEMB     38       PMPE     H5R      HAL2     0.900000E-01   1.00800           0   0.00000     -0.301140E-02
      4570 MEMB     38       PMPE     H5S      HAL2     0.900000E-01   1.00800           0   0.00000     -0.301140E-02
      4571 MEMB     38       PMPE     C26      CTL2    -0.180000       12.0110           0   0.00000     -0.301140E-02
      4572 MEMB     38       PMPE     H6R      HAL2     0.900000E-01   1.00800           0   0.00000     -0.301140E-02
      4573 MEMB     38       PMPE     H6S      HAL2     0.900000E-01   1.00800           0   0.00000     -0.301140E-02
      4574 MEMB     38       PMPE     C27      CTL2    -0.180000       12.0110           0   0.00000     -0.301140E-02
      4575 MEMB     38       PMPE     H7R      HAL2     0.900000E-01   1.00800           0   0.00000     -0.301140E-02
      4576 MEMB     38       PMPE     H7S      HAL2     0.900000E-01   1.00800           0   0.00000     -0.301140E-02
      4577 MEMB     38       PMPE     C28      CTL2    -0.180000       12.0110           0   0.00000     -0.301140E-02
      4578 MEMB     38       PMPE     H8R      HAL2     0.900000E-01   1.00800           0   0.00000     -0.301140E-02
      4579 MEMB     38       PMPE     H8S      HAL2     0.900000E-01   1.00800           0   0.00000     -0.301140E-02
      4580 MEMB     38       PMPE     C29      CG3RC1  -0.900000E-01   12.0110           0   0.00000     -0.301140E-02
      4581 MEMB     38       PMPE     H9R      HGA1     0.900000E-01   1.00800           0   0.00000     -0.301140E-02
      4582 MEMB     38       PMPE     C217     CG3C31  -0.180000       12.0110           0   0.00000     -0.301140E-02
      4583 MEMB     38       PMPE     H17R     HGA2     0.900000E-01   1.00800           0   0.00000     -0.301140E-02
      4584 MEMB     38       PMPE     H17S     HGA2     0.900000E-01   1.00800           0   0.00000     -0.301140E-02
      4585 MEMB     38       PMPE     C210     CG3RC1  -0.900000E-01   12.0110           0   0.00000     -0.301140E-02
      4586 MEMB     38       PMPE     H10R     HGA1     0.900000E-01   1.00800           0   0.00000     -0.301140E-02
      4587 MEMB     38       PMPE     C211     CTL2    -0.180000       12.0110           0   0.00000     -0.301140E-02
      4588 MEMB     38       PMPE     H11R     HAL2     0.900000E-01   1.00800           0   0.00000     -0.301140E-02
      4589 MEMB     38       PMPE     H11S     HAL2     0.900000E-01   1.00800           0   0.00000     -0.301140E-02
      4590 MEMB     38       PMPE     C212     CTL2    -0.180000       12.0110           0   0.00000     -0.301140E-02
      4591 MEMB     38       PMPE     H12R     HAL2     0.900000E-01   1.00800           0   0.00000     -0.301140E-02
      4592 MEMB     38       PMPE     H12S     HAL2     0.900000E-01   1.00800           0   0.00000     -0.301140E-02
      4593 MEMB     38       PMPE     C213     CTL2    -0.180000       12.0110           0   0.00000     -0.301140E-02
      4594 MEMB     38       PMPE     H13R     HAL2     0.900000E-01   1.00800           0   0.00000     -0.301140E-02
      4595 MEMB     38       PMPE     H13S     HAL2     0.900000E-01   1.00800           0   0.00000     -0.301140E-02
      4596 MEMB     38       PMPE     C214     CTL2    -0.180000       12.0110           0   0.00000     -0.301140E-02
      4597 MEMB     38       PMPE     H14R     HAL2     0.900000E-01   1.00800           0   0.00000     -0.301140E-02
      4598 MEMB     38       PMPE     H14S     HAL2     0.900000E-01   1.00800           0   0.00000     -0.301140E-02
      4599 MEMB     38       PMPE     C215     CTL2    -0.180000       12.0110           0   0.00000     -0.301140E-02
      4600 MEMB     38       PMPE     H15R     HAL2     0.900000E-01   1.00800           0   0.00000     -0.301140E-02
      4601 MEMB     38       PMPE     H15S     HAL2     0.900000E-01   1.00800           0   0.00000     -0.301140E-02
      4602 MEMB     38       PMPE     C216     CTL3    -0.270000       12.0110           0   0.00000     -0.301140E-02
      4603 MEMB     38       PMPE     H16R     HAL3     0.900000E-01   1.00800           0   0.00000     -0.301140E-02
      4604 MEMB     38       PMPE     H16S     HAL3     0.900000E-01   1.00800           0   0.00000     -0.301140E-02
      4605 MEMB     38       PMPE     H16T     HAL3     0.900000E-01   1.00800           0   0.00000     -0.301140E-02
      4606 MEMB     38       PMPE     C33      CTL2    -0.180000       12.0110           0   0.00000     -0.301140E-02
      4607 MEMB     38       PMPE     H3X      HAL2     0.900000E-01   1.00800           0   0.00000     -0.301140E-02
      4608 MEMB     38       PMPE     H3Y      HAL2     0.900000E-01   1.00800           0   0.00000     -0.301140E-02
      4609 MEMB     38       PMPE     C34      CTL2    -0.180000       12.0110           0   0.00000     -0.301140E-02
      4610 MEMB     38       PMPE     H4X      HAL2     0.900000E-01   1.00800           0   0.00000     -0.301140E-02
      4611 MEMB     38       PMPE     H4Y      HAL2     0.900000E-01   1.00800           0   0.00000     -0.301140E-02
      4612 MEMB     38       PMPE     C35      CTL2    -0.180000       12.0110           0   0.00000     -0.301140E-02
      4613 MEMB     38       PMPE     H5X      HAL2     0.900000E-01   1.00800           0   0.00000     -0.301140E-02
      4614 MEMB     38       PMPE     H5Y      HAL2     0.900000E-01   1.00800           0   0.00000     -0.301140E-02
      4615 MEMB     38       PMPE     C36      CTL2    -0.180000       12.0110           0   0.00000     -0.301140E-02
      4616 MEMB     38       PMPE     H6X      HAL2     0.900000E-01   1.00800           0   0.00000     -0.301140E-02
      4617 MEMB     38       PMPE     H6Y      HAL2     0.900000E-01   1.00800           0   0.00000     -0.301140E-02
      4618 MEMB     38       PMPE     C37      CTL2    -0.180000       12.0110           0   0.00000     -0.301140E-02
      4619 MEMB     38       PMPE     H7X      HAL2     0.900000E-01   1.00800           0   0.00000     -0.301140E-02
      4620 MEMB     38       PMPE     H7Y      HAL2     0.900000E-01   1.00800           0   0.00000     -0.301140E-02
      4621 MEMB     38       PMPE     C38      CTL2    -0.180000       12.0110           0   0.00000     -0.301140E-02
      4622 MEMB     38       PMPE     H8X      HAL2     0.900000E-01   1.00800           0   0.00000     -0.301140E-02
      4623 MEMB     38       PMPE     H8Y      HAL2     0.900000E-01   1.00800           0   0.00000     -0.301140E-02
      4624 MEMB     38       PMPE     C39      CTL2    -0.180000       12.0110           0   0.00000     -0.301140E-02
      4625 MEMB     38       PMPE     H9X      HAL2     0.900000E-01   1.00800           0   0.00000     -0.301140E-02
      4626 MEMB     38       PMPE     H9Y      HAL2     0.900000E-01   1.00800           0   0.00000     -0.301140E-02
      4627 MEMB     38       PMPE     C310     CTL2    -0.180000       12.0110           0   0.00000     -0.301140E-02
      4628 MEMB     38       PMPE     H10X     HAL2     0.900000E-01   1.00800           0   0.00000     -0.301140E-02
      4629 MEMB     38       PMPE     H10Y     HAL2     0.900000E-01   1.00800           0   0.00000     -0.301140E-02
      4630 MEMB     38       PMPE     C311     CTL2    -0.180000       12.0110           0   0.00000     -0.301140E-02
      4631 MEMB     38       PMPE     H11X     HAL2     0.900000E-01   1.00800           0   0.00000     -0.301140E-02
      4632 MEMB     38       PMPE     H11Y     HAL2     0.900000E-01   1.00800           0   0.00000     -0.301140E-02
      4633 MEMB     38       PMPE     C312     CTL2    -0.180000       12.0110           0   0.00000     -0.301140E-02
      4634 MEMB     38       PMPE     H12X     HAL2     0.900000E-01   1.00800           0   0.00000     -0.301140E-02
      4635 MEMB     38       PMPE     H12Y     HAL2     0.900000E-01   1.00800           0   0.00000     -0.301140E-02
      4636 MEMB     38       PMPE     C313     CTL2    -0.180000       12.0110           0   0.00000     -0.301140E-02
      4637 MEMB     38       PMPE     H13X     HAL2     0.900000E-01   1.00800           0   0.00000     -0.301140E-02
      4638 MEMB     38       PMPE     H13Y     HAL2     0.900000E-01   1.00800           0   0.00000     -0.301140E-02
      4639 MEMB     38       PMPE     C314     CTL2    -0.180000       12.0110           0   0.00000     -0.301140E-02
      4640 MEMB     38       PMPE     H14X     HAL2     0.900000E-01   1.00800           0   0.00000     -0.301140E-02
      4641 MEMB     38       PMPE     H14Y     HAL2     0.900000E-01   1.00800           0   0.00000     -0.301140E-02
      4642 MEMB     38       PMPE     C315     CTL2    -0.180000       12.0110           0   0.00000     -0.301140E-02
      4643 MEMB     38       PMPE     H15X     HAL2     0.900000E-01   1.00800           0   0.00000     -0.301140E-02
      4644 MEMB     38       PMPE     H15Y     HAL2     0.900000E-01   1.00800           0   0.00000     -0.301140E-02
      4645 MEMB     38       PMPE     C316     CTL3    -0.270000       12.0110           0   0.00000     -0.301140E-02
      4646 MEMB     38       PMPE     H16X     HAL3     0.900000E-01   1.00800           0   0.00000     -0.301140E-02
      4647 MEMB     38       PMPE     H16Y     HAL3     0.900000E-01   1.00800           0   0.00000     -0.301140E-02
      4648 MEMB     38       PMPE     H16Z     HAL3     0.900000E-01   1.00800           0   0.00000     -0.301140E-02
      4649 MEMB     39       PMPE     N        NH3L    -0.300000       14.0070           0   0.00000     -0.301140E-02
      4650 MEMB     39       PMPE     HN1      HCL      0.330000       1.00800           0   0.00000     -0.301140E-02
      4651 MEMB     39       PMPE     HN2      HCL      0.330000       1.00800           0   0.00000     -0.301140E-02
      4652 MEMB     39       PMPE     HN3      HCL      0.330000       1.00800           0   0.00000     -0.301140E-02
      4653 MEMB     39       PMPE     C12      CTL2     0.130000       12.0110           0   0.00000     -0.301140E-02
      4654 MEMB     39       PMPE     H12A     HAL2     0.900000E-01   1.00800           0   0.00000     -0.301140E-02
      4655 MEMB     39       PMPE     H12B     HAL2     0.900000E-01   1.00800           0   0.00000     -0.301140E-02
      4656 MEMB     39       PMPE     C11      CTL2    -0.800000E-01   12.0110           0   0.00000     -0.301140E-02
      4657 MEMB     39       PMPE     H11A     HAL2     0.900000E-01   1.00800           0   0.00000     -0.301140E-02
      4658 MEMB     39       PMPE     H11B     HAL2     0.900000E-01   1.00800           0   0.00000     -0.301140E-02
      4659 MEMB     39       PMPE     P        PL        1.50000       30.9740           0   0.00000     -0.301140E-02
      4660 MEMB     39       PMPE     O13      O2L     -0.780000       15.9994           0   0.00000     -0.301140E-02
      4661 MEMB     39       PMPE     O14      O2L     -0.780000       15.9994           0   0.00000     -0.301140E-02
      4662 MEMB     39       PMPE     O11      OSLP    -0.570000       15.9994           0   0.00000     -0.301140E-02
      4663 MEMB     39       PMPE     O12      OSLP    -0.570000       15.9994           0   0.00000     -0.301140E-02
      4664 MEMB     39       PMPE     C1       CTL2    -0.800000E-01   12.0110           0   0.00000     -0.301140E-02
      4665 MEMB     39       PMPE     HA       HAL2     0.900000E-01   1.00800           0   0.00000     -0.301140E-02
      4666 MEMB     39       PMPE     HB       HAL2     0.900000E-01   1.00800           0   0.00000     -0.301140E-02
      4667 MEMB     39       PMPE     C2       CTL1     0.170000       12.0110           0   0.00000     -0.301140E-02
      4668 MEMB     39       PMPE     HS       HAL1     0.900000E-01   1.00800           0   0.00000     -0.301140E-02
      4669 MEMB     39       PMPE     O21      OSL     -0.490000       15.9994           0   0.00000     -0.301140E-02
      4670 MEMB     39       PMPE     C21      CL       0.900000       12.0110           0   0.00000     -0.301140E-02
      4671 MEMB     39       PMPE     O22      OBL     -0.630000       15.9994           0   0.00000     -0.301140E-02
      4672 MEMB     39       PMPE     C22      CTL2    -0.220000       12.0110           0   0.00000     -0.301140E-02
      4673 MEMB     39       PMPE     H2R      HAL2     0.900000E-01   1.00800           0   0.00000     -0.301140E-02
      4674 MEMB     39       PMPE     H2S      HAL2     0.900000E-01   1.00800           0   0.00000     -0.301140E-02
      4675 MEMB     39       PMPE     C3       CTL2     0.800000E-01   12.0110           0   0.00000     -0.301140E-02
      4676 MEMB     39       PMPE     HX       HAL2     0.900000E-01   1.00800           0   0.00000     -0.301140E-02
      4677 MEMB     39       PMPE     HY       HAL2     0.900000E-01   1.00800           0   0.00000     -0.301140E-02
      4678 MEMB     39       PMPE     O31      OSL     -0.490000       15.9994           0   0.00000     -0.301140E-02
      4679 MEMB     39       PMPE     C31      CL       0.900000       12.0110           0   0.00000     -0.301140E-02
      4680 MEMB     39       PMPE     O32      OBL     -0.630000       15.9994           0   0.00000     -0.301140E-02
      4681 MEMB     39       PMPE     C32      CTL2    -0.220000       12.0110           0   0.00000     -0.301140E-02
      4682 MEMB     39       PMPE     H2X      HAL2     0.900000E-01   1.00800           0   0.00000     -0.301140E-02
      4683 MEMB     39       PMPE     H2Y      HAL2     0.900000E-01   1.00800           0   0.00000     -0.301140E-02
      4684 MEMB     39       PMPE     C23      CTL2    -0.180000       12.0110           0   0.00000     -0.301140E-02
      4685 MEMB     39       PMPE     H3R      HAL2     0.900000E-01   1.00800           0   0.00000     -0.301140E-02
      4686 MEMB     39       PMPE     H3S      HAL2     0.900000E-01   1.00800           0   0.00000     -0.301140E-02
      4687 MEMB     39       PMPE     C24      CTL2    -0.180000       12.0110           0   0.00000     -0.301140E-02
      4688 MEMB     39       PMPE     H4R      HAL2     0.900000E-01   1.00800           0   0.00000     -0.301140E-02
      4689 MEMB     39       PMPE     H4S      HAL2     0.900000E-01   1.00800           0   0.00000     -0.301140E-02
      4690 MEMB     39       PMPE     C25      CTL2    -0.180000       12.0110           0   0.00000     -0.301140E-02
      4691 MEMB     39       PMPE     H5R      HAL2     0.900000E-01   1.00800           0   0.00000     -0.301140E-02
      4692 MEMB     39       PMPE     H5S      HAL2     0.900000E-01   1.00800           0   0.00000     -0.301140E-02
      4693 MEMB     39       PMPE     C26      CTL2    -0.180000       12.0110           0   0.00000     -0.301140E-02
      4694 MEMB     39       PMPE     H6R      HAL2     0.900000E-01   1.00800           0   0.00000     -0.301140E-02
      4695 MEMB     39       PMPE     H6S      HAL2     0.900000E-01   1.00800           0   0.00000     -0.301140E-02
      4696 MEMB     39       PMPE     C27      CTL2    -0.180000       12.0110           0   0.00000     -0.301140E-02
      4697 MEMB     39       PMPE     H7R      HAL2     0.900000E-01   1.00800           0   0.00000     -0.301140E-02
      4698 MEMB     39       PMPE     H7S      HAL2     0.900000E-01   1.00800           0   0.00000     -0.301140E-02
      4699 MEMB     39       PMPE     C28      CTL2    -0.180000       12.0110           0   0.00000     -0.301140E-02
      4700 MEMB     39       PMPE     H8R      HAL2     0.900000E-01   1.00800           0   0.00000     -0.301140E-02
      4701 MEMB     39       PMPE     H8S      HAL2     0.900000E-01   1.00800           0   0.00000     -0.301140E-02
      4702 MEMB     39       PMPE     C29      CG3RC1  -0.900000E-01   12.0110           0   0.00000     -0.301140E-02
      4703 MEMB     39       PMPE     H9R      HGA1     0.900000E-01   1.00800           0   0.00000     -0.301140E-02
      4704 MEMB     39       PMPE     C217     CG3C31  -0.180000       12.0110           0   0.00000     -0.301140E-02
      4705 MEMB     39       PMPE     H17R     HGA2     0.900000E-01   1.00800           0   0.00000     -0.301140E-02
      4706 MEMB     39       PMPE     H17S     HGA2     0.900000E-01   1.00800           0   0.00000     -0.301140E-02
      4707 MEMB     39       PMPE     C210     CG3RC1  -0.900000E-01   12.0110           0   0.00000     -0.301140E-02
      4708 MEMB     39       PMPE     H10R     HGA1     0.900000E-01   1.00800           0   0.00000     -0.301140E-02
      4709 MEMB     39       PMPE     C211     CTL2    -0.180000       12.0110           0   0.00000     -0.301140E-02
      4710 MEMB     39       PMPE     H11R     HAL2     0.900000E-01   1.00800           0   0.00000     -0.301140E-02
      4711 MEMB     39       PMPE     H11S     HAL2     0.900000E-01   1.00800           0   0.00000     -0.301140E-02
      4712 MEMB     39       PMPE     C212     CTL2    -0.180000       12.0110           0   0.00000     -0.301140E-02
      4713 MEMB     39       PMPE     H12R     HAL2     0.900000E-01   1.00800           0   0.00000     -0.301140E-02
      4714 MEMB     39       PMPE     H12S     HAL2     0.900000E-01   1.00800           0   0.00000     -0.301140E-02
      4715 MEMB     39       PMPE     C213     CTL2    -0.180000       12.0110           0   0.00000     -0.301140E-02
      4716 MEMB     39       PMPE     H13R     HAL2     0.900000E-01   1.00800           0   0.00000     -0.301140E-02
      4717 MEMB     39       PMPE     H13S     HAL2     0.900000E-01   1.00800           0   0.00000     -0.301140E-02
      4718 MEMB     39       PMPE     C214     CTL2    -0.180000       12.0110           0   0.00000     -0.301140E-02
      4719 MEMB     39       PMPE     H14R     HAL2     0.900000E-01   1.00800           0   0.00000     -0.301140E-02
      4720 MEMB     39       PMPE     H14S     HAL2     0.900000E-01   1.00800           0   0.00000     -0.301140E-02
      4721 MEMB     39       PMPE     C215     CTL2    -0.180000       12.0110           0   0.00000     -0.301140E-02
      4722 MEMB     39       PMPE     H15R     HAL2     0.900000E-01   1.00800           0   0.00000     -0.301140E-02
      4723 MEMB     39       PMPE     H15S     HAL2     0.900000E-01   1.00800           0   0.00000     -0.301140E-02
      4724 MEMB     39       PMPE     C216     CTL3    -0.270000       12.0110           0   0.00000     -0.301140E-02
      4725 MEMB     39       PMPE     H16R     HAL3     0.900000E-01   1.00800           0   0.00000     -0.301140E-02
      4726 MEMB     39       PMPE     H16S     HAL3     0.900000E-01   1.00800           0   0.00000     -0.301140E-02
      4727 MEMB     39       PMPE     H16T     HAL3     0.900000E-01   1.00800           0   0.00000     -0.301140E-02
      4728 MEMB     39       PMPE     C33      CTL2    -0.180000       12.0110           0   0.00000     -0.301140E-02
      4729 MEMB     39       PMPE     H3X      HAL2     0.900000E-01   1.00800           0   0.00000     -0.301140E-02
      4730 MEMB     39       PMPE     H3Y      HAL2     0.900000E-01   1.00800           0   0.00000     -0.301140E-02
      4731 MEMB     39       PMPE     C34      CTL2    -0.180000       12.0110           0   0.00000     -0.301140E-02
      4732 MEMB     39       PMPE     H4X      HAL2     0.900000E-01   1.00800           0   0.00000     -0.301140E-02
      4733 MEMB     39       PMPE     H4Y      HAL2     0.900000E-01   1.00800           0   0.00000     -0.301140E-02
      4734 MEMB     39       PMPE     C35      CTL2    -0.180000       12.0110           0   0.00000     -0.301140E-02
      4735 MEMB     39       PMPE     H5X      HAL2     0.900000E-01   1.00800           0   0.00000     -0.301140E-02
      4736 MEMB     39       PMPE     H5Y      HAL2     0.900000E-01   1.00800           0   0.00000     -0.301140E-02
      4737 MEMB     39       PMPE     C36      CTL2    -0.180000       12.0110           0   0.00000     -0.301140E-02
      4738 MEMB     39       PMPE     H6X      HAL2     0.900000E-01   1.00800           0   0.00000     -0.301140E-02
      4739 MEMB     39       PMPE     H6Y      HAL2     0.900000E-01   1.00800           0   0.00000     -0.301140E-02
      4740 MEMB     39       PMPE     C37      CTL2    -0.180000       12.0110           0   0.00000     -0.301140E-02
      4741 MEMB     39       PMPE     H7X      HAL2     0.900000E-01   1.00800           0   0.00000     -0.301140E-02
      4742 MEMB     39       PMPE     H7Y      HAL2     0.900000E-01   1.00800           0   0.00000     -0.301140E-02
      4743 MEMB     39       PMPE     C38      CTL2    -0.180000       12.0110           0   0.00000     -0.301140E-02
      4744 MEMB     39       PMPE     H8X      HAL2     0.900000E-01   1.00800           0   0.00000     -0.301140E-02
      4745 MEMB     39       PMPE     H8Y      HAL2     0.900000E-01   1.00800           0   0.00000     -0.301140E-02
      4746 MEMB     39       PMPE     C39      CTL2    -0.180000       12.0110           0   0.00000     -0.301140E-02
      4747 MEMB     39       PMPE     H9X      HAL2     0.900000E-01   1.00800           0   0.00000     -0.301140E-02
      4748 MEMB     39       PMPE     H9Y      HAL2     0.900000E-01   1.00800           0   0.00000     -0.301140E-02
      4749 MEMB     39       PMPE     C310     CTL2    -0.180000       12.0110           0   0.00000     -0.301140E-02
      4750 MEMB     39       PMPE     H10X     HAL2     0.900000E-01   1.00800           0   0.00000     -0.301140E-02
      4751 MEMB     39       PMPE     H10Y     HAL2     0.900000E-01   1.00800           0   0.00000     -0.301140E-02
      4752 MEMB     39       PMPE     C311     CTL2    -0.180000       12.0110           0   0.00000     -0.301140E-02
      4753 MEMB     39       PMPE     H11X     HAL2     0.900000E-01   1.00800           0   0.00000     -0.301140E-02
      4754 MEMB     39       PMPE     H11Y     HAL2     0.900000E-01   1.00800           0   0.00000     -0.301140E-02
      4755 MEMB     39       PMPE     C312     CTL2    -0.180000       12.0110           0   0.00000     -0.301140E-02
      4756 MEMB     39       PMPE     H12X     HAL2     0.900000E-01   1.00800           0   0.00000     -0.301140E-02
      4757 MEMB     39       PMPE     H12Y     HAL2     0.900000E-01   1.00800           0   0.00000     -0.301140E-02
      4758 MEMB     39       PMPE     C313     CTL2    -0.180000       12.0110           0   0.00000     -0.301140E-02
      4759 MEMB     39       PMPE     H13X     HAL2     0.900000E-01   1.00800           0   0.00000     -0.301140E-02
      4760 MEMB     39       PMPE     H13Y     HAL2     0.900000E-01   1.00800           0   0.00000     -0.301140E-02
      4761 MEMB     39       PMPE     C314     CTL2    -0.180000       12.0110           0   0.00000     -0.301140E-02
      4762 MEMB     39       PMPE     H14X     HAL2     0.900000E-01   1.00800           0   0.00000     -0.301140E-02
      4763 MEMB     39       PMPE     H14Y     HAL2     0.900000E-01   1.00800           0   0.00000     -0.301140E-02
      4764 MEMB     39       PMPE     C315     CTL2    -0.180000       12.0110           0   0.00000     -0.301140E-02
      4765 MEMB     39       PMPE     H15X     HAL2     0.900000E-01   1.00800           0   0.00000     -0.301140E-02
      4766 MEMB     39       PMPE     H15Y     HAL2     0.900000E-01   1.00800           0   0.00000     -0.301140E-02
      4767 MEMB     39       PMPE     C316     CTL3    -0.270000       12.0110           0   0.00000     -0.301140E-02
      4768 MEMB     39       PMPE     H16X     HAL3     0.900000E-01   1.00800           0   0.00000     -0.301140E-02
      4769 MEMB     39       PMPE     H16Y     HAL3     0.900000E-01   1.00800           0   0.00000     -0.301140E-02
      4770 MEMB     39       PMPE     H16Z     HAL3     0.900000E-01   1.00800           0   0.00000     -0.301140E-02
      4771 MEMB     40       PMPG     C13      CTL2     0.500000E-01   12.0110           0   0.00000     -0.301140E-02
      4772 MEMB     40       PMPG     H13A     HAL2     0.900000E-01   1.00800           0   0.00000     -0.301140E-02
      4773 MEMB     40       PMPG     H13B     HAL2     0.900000E-01   1.00800           0   0.00000     -0.301140E-02
      4774 MEMB     40       PMPG     OC3      OHL     -0.660000       15.9994           0   0.00000     -0.301140E-02
      4775 MEMB     40       PMPG     HO3      HOL      0.430000       1.00800           0   0.00000     -0.301140E-02
      4776 MEMB     40       PMPG     C12      CTL1     0.140000       12.0110           0   0.00000     -0.301140E-02
      4777 MEMB     40       PMPG     H12A     HAL1     0.900000E-01   1.00800           0   0.00000     -0.301140E-02
      4778 MEMB     40       PMPG     OC2      OHL     -0.660000       15.9994           0   0.00000     -0.301140E-02
      4779 MEMB     40       PMPG     HO2      HOL      0.430000       1.00800           0   0.00000     -0.301140E-02
      4780 MEMB     40       PMPG     C11      CTL2    -0.800000E-01   12.0110           0   0.00000     -0.301140E-02
      4781 MEMB     40       PMPG     H11A     HAL2     0.900000E-01   1.00800           0   0.00000     -0.301140E-02
      4782 MEMB     40       PMPG     H11B     HAL2     0.900000E-01   1.00800           0   0.00000     -0.301140E-02
      4783 MEMB     40       PMPG     P        PL        1.50000       30.9740           0   0.00000     -0.301140E-02
      4784 MEMB     40       PMPG     O13      O2L     -0.780000       15.9994           0   0.00000     -0.301140E-02
      4785 MEMB     40       PMPG     O14      O2L     -0.780000       15.9994           0   0.00000     -0.301140E-02
      4786 MEMB     40       PMPG     O11      OSLP    -0.570000       15.9994           0   0.00000     -0.301140E-02
      4787 MEMB     40       PMPG     O12      OSLP    -0.570000       15.9994           0   0.00000     -0.301140E-02
      4788 MEMB     40       PMPG     C1       CTL2    -0.800000E-01   12.0110           0   0.00000     -0.301140E-02
      4789 MEMB     40       PMPG     HA       HAL2     0.900000E-01   1.00800           0   0.00000     -0.301140E-02
      4790 MEMB     40       PMPG     HB       HAL2     0.900000E-01   1.00800           0   0.00000     -0.301140E-02
      4791 MEMB     40       PMPG     C2       CTL1     0.170000       12.0110           0   0.00000     -0.301140E-02
      4792 MEMB     40       PMPG     HS       HAL1     0.900000E-01   1.00800           0   0.00000     -0.301140E-02
      4793 MEMB     40       PMPG     O21      OSL     -0.490000       15.9994           0   0.00000     -0.301140E-02
      4794 MEMB     40       PMPG     C21      CL       0.900000       12.0110           0   0.00000     -0.301140E-02
      4795 MEMB     40       PMPG     O22      OBL     -0.630000       15.9994           0   0.00000     -0.301140E-02
      4796 MEMB     40       PMPG     C22      CTL2    -0.220000       12.0110           0   0.00000     -0.301140E-02
      4797 MEMB     40       PMPG     H2R      HAL2     0.900000E-01   1.00800           0   0.00000     -0.301140E-02
      4798 MEMB     40       PMPG     H2S      HAL2     0.900000E-01   1.00800           0   0.00000     -0.301140E-02
      4799 MEMB     40       PMPG     C3       CTL2     0.800000E-01   12.0110           0   0.00000     -0.301140E-02
      4800 MEMB     40       PMPG     HX       HAL2     0.900000E-01   1.00800           0   0.00000     -0.301140E-02
      4801 MEMB     40       PMPG     HY       HAL2     0.900000E-01   1.00800           0   0.00000     -0.301140E-02
      4802 MEMB     40       PMPG     O31      OSL     -0.490000       15.9994           0   0.00000     -0.301140E-02
      4803 MEMB     40       PMPG     C31      CL       0.900000       12.0110           0   0.00000     -0.301140E-02
      4804 MEMB     40       PMPG     O32      OBL     -0.630000       15.9994           0   0.00000     -0.301140E-02
      4805 MEMB     40       PMPG     C32      CTL2    -0.220000       12.0110           0   0.00000     -0.301140E-02
      4806 MEMB     40       PMPG     H2X      HAL2     0.900000E-01   1.00800           0   0.00000     -0.301140E-02
      4807 MEMB     40       PMPG     H2Y      HAL2     0.900000E-01   1.00800           0   0.00000     -0.301140E-02
      4808 MEMB     40       PMPG     C23      CTL2    -0.180000       12.0110           0   0.00000     -0.301140E-02
      4809 MEMB     40       PMPG     H3R      HAL2     0.900000E-01   1.00800           0   0.00000     -0.301140E-02
      4810 MEMB     40       PMPG     H3S      HAL2     0.900000E-01   1.00800           0   0.00000     -0.301140E-02
      4811 MEMB     40       PMPG     C24      CTL2    -0.180000       12.0110           0   0.00000     -0.301140E-02
      4812 MEMB     40       PMPG     H4R      HAL2     0.900000E-01   1.00800           0   0.00000     -0.301140E-02
      4813 MEMB     40       PMPG     H4S      HAL2     0.900000E-01   1.00800           0   0.00000     -0.301140E-02
      4814 MEMB     40       PMPG     C25      CTL2    -0.180000       12.0110           0   0.00000     -0.301140E-02
      4815 MEMB     40       PMPG     H5R      HAL2     0.900000E-01   1.00800           0   0.00000     -0.301140E-02
      4816 MEMB     40       PMPG     H5S      HAL2     0.900000E-01   1.00800           0   0.00000     -0.301140E-02
      4817 MEMB     40       PMPG     C26      CTL2    -0.180000       12.0110           0   0.00000     -0.301140E-02
      4818 MEMB     40       PMPG     H6R      HAL2     0.900000E-01   1.00800           0   0.00000     -0.301140E-02
      4819 MEMB     40       PMPG     H6S      HAL2     0.900000E-01   1.00800           0   0.00000     -0.301140E-02
      4820 MEMB     40       PMPG     C27      CTL2    -0.180000       12.0110           0   0.00000     -0.301140E-02
      4821 MEMB     40       PMPG     H7R      HAL2     0.900000E-01   1.00800           0   0.00000     -0.301140E-02
      4822 MEMB     40       PMPG     H7S      HAL2     0.900000E-01   1.00800           0   0.00000     -0.301140E-02
      4823 MEMB     40       PMPG     C28      CTL2    -0.180000       12.0110           0   0.00000     -0.301140E-02
      4824 MEMB     40       PMPG     H8R      HAL2     0.900000E-01   1.00800           0   0.00000     -0.301140E-02
      4825 MEMB     40       PMPG     H8S      HAL2     0.900000E-01   1.00800           0   0.00000     -0.301140E-02
      4826 MEMB     40       PMPG     C29      CG3RC1  -0.900000E-01   12.0110           0   0.00000     -0.301140E-02
      4827 MEMB     40       PMPG     H9R      HGA1     0.900000E-01   1.00800           0   0.00000     -0.301140E-02
      4828 MEMB     40       PMPG     C217     CG3C31  -0.180000       12.0110           0   0.00000     -0.301140E-02
      4829 MEMB     40       PMPG     H17R     HGA2     0.900000E-01   1.00800           0   0.00000     -0.301140E-02
      4830 MEMB     40       PMPG     H17S     HGA2     0.900000E-01   1.00800           0   0.00000     -0.301140E-02
      4831 MEMB     40       PMPG     C210     CG3RC1  -0.900000E-01   12.0110           0   0.00000     -0.301140E-02
      4832 MEMB     40       PMPG     H10R     HGA1     0.900000E-01   1.00800           0   0.00000     -0.301140E-02
      4833 MEMB     40       PMPG     C211     CTL2    -0.180000       12.0110           0   0.00000     -0.301140E-02
      4834 MEMB     40       PMPG     H11R     HAL2     0.900000E-01   1.00800           0   0.00000     -0.301140E-02
      4835 MEMB     40       PMPG     H11S     HAL2     0.900000E-01   1.00800           0   0.00000     -0.301140E-02
      4836 MEMB     40       PMPG     C212     CTL2    -0.180000       12.0110           0   0.00000     -0.301140E-02
      4837 MEMB     40       PMPG     H12R     HAL2     0.900000E-01   1.00800           0   0.00000     -0.301140E-02
      4838 MEMB     40       PMPG     H12S     HAL2     0.900000E-01   1.00800           0   0.00000     -0.301140E-02
      4839 MEMB     40       PMPG     C213     CTL2    -0.180000       12.0110           0   0.00000     -0.301140E-02
      4840 MEMB     40       PMPG     H13R     HAL2     0.900000E-01   1.00800           0   0.00000     -0.301140E-02
      4841 MEMB     40       PMPG     H13S     HAL2     0.900000E-01   1.00800           0   0.00000     -0.301140E-02
      4842 MEMB     40       PMPG     C214     CTL2    -0.180000       12.0110           0   0.00000     -0.301140E-02
      4843 MEMB     40       PMPG     H14R     HAL2     0.900000E-01   1.00800           0   0.00000     -0.301140E-02
      4844 MEMB     40       PMPG     H14S     HAL2     0.900000E-01   1.00800           0   0.00000     -0.301140E-02
      4845 MEMB     40       PMPG     C215     CTL2    -0.180000       12.0110           0   0.00000     -0.301140E-02
      4846 MEMB     40       PMPG     H15R     HAL2     0.900000E-01   1.00800           0   0.00000     -0.301140E-02
      4847 MEMB     40       PMPG     H15S     HAL2     0.900000E-01   1.00800           0   0.00000     -0.301140E-02
      4848 MEMB     40       PMPG     C216     CTL3    -0.270000       12.0110           0   0.00000     -0.301140E-02
      4849 MEMB     40       PMPG     H16R     HAL3     0.900000E-01   1.00800           0   0.00000     -0.301140E-02
      4850 MEMB     40       PMPG     H16S     HAL3     0.900000E-01   1.00800           0   0.00000     -0.301140E-02
      4851 MEMB     40       PMPG     H16T     HAL3     0.900000E-01   1.00800           0   0.00000     -0.301140E-02
      4852 MEMB     40       PMPG     C33      CTL2    -0.180000       12.0110           0   0.00000     -0.301140E-02
      4853 MEMB     40       PMPG     H3X      HAL2     0.900000E-01   1.00800           0   0.00000     -0.301140E-02
      4854 MEMB     40       PMPG     H3Y      HAL2     0.900000E-01   1.00800           0   0.00000     -0.301140E-02
      4855 MEMB     40       PMPG     C34      CTL2    -0.180000       12.0110           0   0.00000     -0.301140E-02
      4856 MEMB     40       PMPG     H4X      HAL2     0.900000E-01   1.00800           0   0.00000     -0.301140E-02
      4857 MEMB     40       PMPG     H4Y      HAL2     0.900000E-01   1.00800           0   0.00000     -0.301140E-02
      4858 MEMB     40       PMPG     C35      CTL2    -0.180000       12.0110           0   0.00000     -0.301140E-02
      4859 MEMB     40       PMPG     H5X      HAL2     0.900000E-01   1.00800           0   0.00000     -0.301140E-02
      4860 MEMB     40       PMPG     H5Y      HAL2     0.900000E-01   1.00800           0   0.00000     -0.301140E-02
      4861 MEMB     40       PMPG     C36      CTL2    -0.180000       12.0110           0   0.00000     -0.301140E-02
      4862 MEMB     40       PMPG     H6X      HAL2     0.900000E-01   1.00800           0   0.00000     -0.301140E-02
      4863 MEMB     40       PMPG     H6Y      HAL2     0.900000E-01   1.00800           0   0.00000     -0.301140E-02
      4864 MEMB     40       PMPG     C37      CTL2    -0.180000       12.0110           0   0.00000     -0.301140E-02
      4865 MEMB     40       PMPG     H7X      HAL2     0.900000E-01   1.00800           0   0.00000     -0.301140E-02
      4866 MEMB     40       PMPG     H7Y      HAL2     0.900000E-01   1.00800           0   0.00000     -0.301140E-02
      4867 MEMB     40       PMPG     C38      CTL2    -0.180000       12.0110           0   0.00000     -0.301140E-02
      4868 MEMB     40       PMPG     H8X      HAL2     0.900000E-01   1.00800           0   0.00000     -0.301140E-02
      4869 MEMB     40       PMPG     H8Y      HAL2     0.900000E-01   1.00800           0   0.00000     -0.301140E-02
      4870 MEMB     40       PMPG     C39      CTL2    -0.180000       12.0110           0   0.00000     -0.301140E-02
      4871 MEMB     40       PMPG     H9X      HAL2     0.900000E-01   1.00800           0   0.00000     -0.301140E-02
      4872 MEMB     40       PMPG     H9Y      HAL2     0.900000E-01   1.00800           0   0.00000     -0.301140E-02
      4873 MEMB     40       PMPG     C310     CTL2    -0.180000       12.0110           0   0.00000     -0.301140E-02
      4874 MEMB     40       PMPG     H10X     HAL2     0.900000E-01   1.00800           0   0.00000     -0.301140E-02
      4875 MEMB     40       PMPG     H10Y     HAL2     0.900000E-01   1.00800           0   0.00000     -0.301140E-02
      4876 MEMB     40       PMPG     C311     CTL2    -0.180000       12.0110           0   0.00000     -0.301140E-02
      4877 MEMB     40       PMPG     H11X     HAL2     0.900000E-01   1.00800           0   0.00000     -0.301140E-02
      4878 MEMB     40       PMPG     H11Y     HAL2     0.900000E-01   1.00800           0   0.00000     -0.301140E-02
      4879 MEMB     40       PMPG     C312     CTL2    -0.180000       12.0110           0   0.00000     -0.301140E-02
      4880 MEMB     40       PMPG     H12X     HAL2     0.900000E-01   1.00800           0   0.00000     -0.301140E-02
      4881 MEMB     40       PMPG     H12Y     HAL2     0.900000E-01   1.00800           0   0.00000     -0.301140E-02
      4882 MEMB     40       PMPG     C313     CTL2    -0.180000       12.0110           0   0.00000     -0.301140E-02
      4883 MEMB     40       PMPG     H13X     HAL2     0.900000E-01   1.00800           0   0.00000     -0.301140E-02
      4884 MEMB     40       PMPG     H13Y     HAL2     0.900000E-01   1.00800           0   0.00000     -0.301140E-02
      4885 MEMB     40       PMPG     C314     CTL2    -0.180000       12.0110           0   0.00000     -0.301140E-02
      4886 MEMB     40       PMPG     H14X     HAL2     0.900000E-01   1.00800           0   0.00000     -0.301140E-02
      4887 MEMB     40       PMPG     H14Y     HAL2     0.900000E-01   1.00800           0   0.00000     -0.301140E-02
      4888 MEMB     40       PMPG     C315     CTL2    -0.180000       12.0110           0   0.00000     -0.301140E-02
      4889 MEMB     40       PMPG     H15X     HAL2     0.900000E-01   1.00800           0   0.00000     -0.301140E-02
      4890 MEMB     40       PMPG     H15Y     HAL2     0.900000E-01   1.00800           0   0.00000     -0.301140E-02
      4891 MEMB     40       PMPG     C316     CTL3    -0.270000       12.0110           0   0.00000     -0.301140E-02
      4892 MEMB     40       PMPG     H16X     HAL3     0.900000E-01   1.00800           0   0.00000     -0.301140E-02
      4893 MEMB     40       PMPG     H16Y     HAL3     0.900000E-01   1.00800           0   0.00000     -0.301140E-02
      4894 MEMB     40       PMPG     H16Z     HAL3     0.900000E-01   1.00800           0   0.00000     -0.301140E-02
      4895 MEMB     41       QMPE     N        NH3L    -0.300000       14.0070           0   0.00000     -0.301140E-02
      4896 MEMB     41       QMPE     HN1      HCL      0.330000       1.00800           0   0.00000     -0.301140E-02
      4897 MEMB     41       QMPE     HN2      HCL      0.330000       1.00800           0   0.00000     -0.301140E-02
      4898 MEMB     41       QMPE     HN3      HCL      0.330000       1.00800           0   0.00000     -0.301140E-02
      4899 MEMB     41       QMPE     C12      CTL2     0.130000       12.0110           0   0.00000     -0.301140E-02
      4900 MEMB     41       QMPE     H12A     HAL2     0.900000E-01   1.00800           0   0.00000     -0.301140E-02
      4901 MEMB     41       QMPE     H12B     HAL2     0.900000E-01   1.00800           0   0.00000     -0.301140E-02
      4902 MEMB     41       QMPE     C11      CTL2    -0.800000E-01   12.0110           0   0.00000     -0.301140E-02
      4903 MEMB     41       QMPE     H11A     HAL2     0.900000E-01   1.00800           0   0.00000     -0.301140E-02
      4904 MEMB     41       QMPE     H11B     HAL2     0.900000E-01   1.00800           0   0.00000     -0.301140E-02
      4905 MEMB     41       QMPE     P        PL        1.50000       30.9740           0   0.00000     -0.301140E-02
      4906 MEMB     41       QMPE     O13      O2L     -0.780000       15.9994           0   0.00000     -0.301140E-02
      4907 MEMB     41       QMPE     O14      O2L     -0.780000       15.9994           0   0.00000     -0.301140E-02
      4908 MEMB     41       QMPE     O11      OSLP    -0.570000       15.9994           0   0.00000     -0.301140E-02
      4909 MEMB     41       QMPE     O12      OSLP    -0.570000       15.9994           0   0.00000     -0.301140E-02
      4910 MEMB     41       QMPE     C1       CTL2    -0.800000E-01   12.0110           0   0.00000     -0.301140E-02
      4911 MEMB     41       QMPE     HA       HAL2     0.900000E-01   1.00800           0   0.00000     -0.301140E-02
      4912 MEMB     41       QMPE     HB       HAL2     0.900000E-01   1.00800           0   0.00000     -0.301140E-02
      4913 MEMB     41       QMPE     C2       CTL1     0.170000       12.0110           0   0.00000     -0.301140E-02
      4914 MEMB     41       QMPE     HS       HAL1     0.900000E-01   1.00800           0   0.00000     -0.301140E-02
      4915 MEMB     41       QMPE     O21      OSL     -0.490000       15.9994           0   0.00000     -0.301140E-02
      4916 MEMB     41       QMPE     C21      CL       0.900000       12.0110           0   0.00000     -0.301140E-02
      4917 MEMB     41       QMPE     O22      OBL     -0.630000       15.9994           0   0.00000     -0.301140E-02
      4918 MEMB     41       QMPE     C22      CTL2    -0.220000       12.0110           0   0.00000     -0.301140E-02
      4919 MEMB     41       QMPE     H2R      HAL2     0.900000E-01   1.00800           0   0.00000     -0.301140E-02
      4920 MEMB     41       QMPE     H2S      HAL2     0.900000E-01   1.00800           0   0.00000     -0.301140E-02
      4921 MEMB     41       QMPE     C3       CTL2     0.800000E-01   12.0110           0   0.00000     -0.301140E-02
      4922 MEMB     41       QMPE     HX       HAL2     0.900000E-01   1.00800           0   0.00000     -0.301140E-02
      4923 MEMB     41       QMPE     HY       HAL2     0.900000E-01   1.00800           0   0.00000     -0.301140E-02
      4924 MEMB     41       QMPE     O31      OSL     -0.490000       15.9994           0   0.00000     -0.301140E-02
      4925 MEMB     41       QMPE     C31      CL       0.900000       12.0110           0   0.00000     -0.301140E-02
      4926 MEMB     41       QMPE     O32      OBL     -0.630000       15.9994           0   0.00000     -0.301140E-02
      4927 MEMB     41       QMPE     C32      CTL2    -0.220000       12.0110           0   0.00000     -0.301140E-02
      4928 MEMB     41       QMPE     H2X      HAL2     0.900000E-01   1.00800           0   0.00000     -0.301140E-02
      4929 MEMB     41       QMPE     H2Y      HAL2     0.900000E-01   1.00800           0   0.00000     -0.301140E-02
      4930 MEMB     41       QMPE     C23      CTL2    -0.180000       12.0110           0   0.00000     -0.301140E-02
      4931 MEMB     41       QMPE     H3R      HAL2     0.900000E-01   1.00800           0   0.00000     -0.301140E-02
      4932 MEMB     41       QMPE     H3S      HAL2     0.900000E-01   1.00800           0   0.00000     -0.301140E-02
      4933 MEMB     41       QMPE     C24      CTL2    -0.180000       12.0110           0   0.00000     -0.301140E-02
      4934 MEMB     41       QMPE     H4R      HAL2     0.900000E-01   1.00800           0   0.00000     -0.301140E-02
      4935 MEMB     41       QMPE     H4S      HAL2     0.900000E-01   1.00800           0   0.00000     -0.301140E-02
      4936 MEMB     41       QMPE     C25      CTL2    -0.180000       12.0110           0   0.00000     -0.301140E-02
      4937 MEMB     41       QMPE     H5R      HAL2     0.900000E-01   1.00800           0   0.00000     -0.301140E-02
      4938 MEMB     41       QMPE     H5S      HAL2     0.900000E-01   1.00800           0   0.00000     -0.301140E-02
      4939 MEMB     41       QMPE     C26      CTL2    -0.180000       12.0110           0   0.00000     -0.301140E-02
      4940 MEMB     41       QMPE     H6R      HAL2     0.900000E-01   1.00800           0   0.00000     -0.301140E-02
      4941 MEMB     41       QMPE     H6S      HAL2     0.900000E-01   1.00800           0   0.00000     -0.301140E-02
      4942 MEMB     41       QMPE     C27      CTL2    -0.180000       12.0110           0   0.00000     -0.301140E-02
      4943 MEMB     41       QMPE     H7R      HAL2     0.900000E-01   1.00800           0   0.00000     -0.301140E-02
      4944 MEMB     41       QMPE     H7S      HAL2     0.900000E-01   1.00800           0   0.00000     -0.301140E-02
      4945 MEMB     41       QMPE     C28      CTL2    -0.180000       12.0110           0   0.00000     -0.301140E-02
      4946 MEMB     41       QMPE     H8R      HAL2     0.900000E-01   1.00800           0   0.00000     -0.301140E-02
      4947 MEMB     41       QMPE     H8S      HAL2     0.900000E-01   1.00800           0   0.00000     -0.301140E-02
      4948 MEMB     41       QMPE     C29      CG3RC1  -0.900000E-01   12.0110           0   0.00000     -0.301140E-02
      4949 MEMB     41       QMPE     H9R      HGA1     0.900000E-01   1.00800           0   0.00000     -0.301140E-02
      4950 MEMB     41       QMPE     C217     CG3C31  -0.180000       12.0110           0   0.00000     -0.301140E-02
      4951 MEMB     41       QMPE     H17R     HGA2     0.900000E-01   1.00800           0   0.00000     -0.301140E-02
      4952 MEMB     41       QMPE     H17S     HGA2     0.900000E-01   1.00800           0   0.00000     -0.301140E-02
      4953 MEMB     41       QMPE     C210     CG3RC1  -0.900000E-01   12.0110           0   0.00000     -0.301140E-02
      4954 MEMB     41       QMPE     H10R     HGA1     0.900000E-01   1.00800           0   0.00000     -0.301140E-02
      4955 MEMB     41       QMPE     C211     CTL2    -0.180000       12.0110           0   0.00000     -0.301140E-02
      4956 MEMB     41       QMPE     H11R     HAL2     0.900000E-01   1.00800           0   0.00000     -0.301140E-02
      4957 MEMB     41       QMPE     H11S     HAL2     0.900000E-01   1.00800           0   0.00000     -0.301140E-02
      4958 MEMB     41       QMPE     C212     CTL2    -0.180000       12.0110           0   0.00000     -0.301140E-02
      4959 MEMB     41       QMPE     H12R     HAL2     0.900000E-01   1.00800           0   0.00000     -0.301140E-02
      4960 MEMB     41       QMPE     H12S     HAL2     0.900000E-01   1.00800           0   0.00000     -0.301140E-02
      4961 MEMB     41       QMPE     C213     CTL2    -0.180000       12.0110           0   0.00000     -0.301140E-02
      4962 MEMB     41       QMPE     H13R     HAL2     0.900000E-01   1.00800           0   0.00000     -0.301140E-02
      4963 MEMB     41       QMPE     H13S     HAL2     0.900000E-01   1.00800           0   0.00000     -0.301140E-02
      4964 MEMB     41       QMPE     C214     CTL2    -0.180000       12.0110           0   0.00000     -0.301140E-02
      4965 MEMB     41       QMPE     H14R     HAL2     0.900000E-01   1.00800           0   0.00000     -0.301140E-02
      4966 MEMB     41       QMPE     H14S     HAL2     0.900000E-01   1.00800           0   0.00000     -0.301140E-02
      4967 MEMB     41       QMPE     C215     CTL2    -0.180000       12.0110           0   0.00000     -0.301140E-02
      4968 MEMB     41       QMPE     H15R     HAL2     0.900000E-01   1.00800           0   0.00000     -0.301140E-02
      4969 MEMB     41       QMPE     H15S     HAL2     0.900000E-01   1.00800           0   0.00000     -0.301140E-02
      4970 MEMB     41       QMPE     C216     CTL3    -0.270000       12.0110           0   0.00000     -0.301140E-02
      4971 MEMB     41       QMPE     H16R     HAL3     0.900000E-01   1.00800           0   0.00000     -0.301140E-02
      4972 MEMB     41       QMPE     H16S     HAL3     0.900000E-01   1.00800           0   0.00000     -0.301140E-02
      4973 MEMB     41       QMPE     H16T     HAL3     0.900000E-01   1.00800           0   0.00000     -0.301140E-02
      4974 MEMB     41       QMPE     C33      CTL2    -0.180000       12.0110           0   0.00000     -0.301140E-02
      4975 MEMB     41       QMPE     H3X      HAL2     0.900000E-01   1.00800           0   0.00000     -0.301140E-02
      4976 MEMB     41       QMPE     H3Y      HAL2     0.900000E-01   1.00800           0   0.00000     -0.301140E-02
      4977 MEMB     41       QMPE     C34      CTL2    -0.180000       12.0110           0   0.00000     -0.301140E-02
      4978 MEMB     41       QMPE     H4X      HAL2     0.900000E-01   1.00800           0   0.00000     -0.301140E-02
      4979 MEMB     41       QMPE     H4Y      HAL2     0.900000E-01   1.00800           0   0.00000     -0.301140E-02
      4980 MEMB     41       QMPE     C35      CTL2    -0.180000       12.0110           0   0.00000     -0.301140E-02
      4981 MEMB     41       QMPE     H5X      HAL2     0.900000E-01   1.00800           0   0.00000     -0.301140E-02
      4982 MEMB     41       QMPE     H5Y      HAL2     0.900000E-01   1.00800           0   0.00000     -0.301140E-02
      4983 MEMB     41       QMPE     C36      CTL2    -0.180000       12.0110           0   0.00000     -0.301140E-02
      4984 MEMB     41       QMPE     H6X      HAL2     0.900000E-01   1.00800           0   0.00000     -0.301140E-02
      4985 MEMB     41       QMPE     H6Y      HAL2     0.900000E-01   1.00800           0   0.00000     -0.301140E-02
      4986 MEMB     41       QMPE     C37      CTL2    -0.180000       12.0110           0   0.00000     -0.301140E-02
      4987 MEMB     41       QMPE     H7X      HAL2     0.900000E-01   1.00800           0   0.00000     -0.301140E-02
      4988 MEMB     41       QMPE     H7Y      HAL2     0.900000E-01   1.00800           0   0.00000     -0.301140E-02
      4989 MEMB     41       QMPE     C38      CTL2    -0.180000       12.0110           0   0.00000     -0.301140E-02
      4990 MEMB     41       QMPE     H8X      HAL2     0.900000E-01   1.00800           0   0.00000     -0.301140E-02
      4991 MEMB     41       QMPE     H8Y      HAL2     0.900000E-01   1.00800           0   0.00000     -0.301140E-02
      4992 MEMB     41       QMPE     C39      CTL2    -0.180000       12.0110           0   0.00000     -0.301140E-02
      4993 MEMB     41       QMPE     H9X      HAL2     0.900000E-01   1.00800           0   0.00000     -0.301140E-02
      4994 MEMB     41       QMPE     H9Y      HAL2     0.900000E-01   1.00800           0   0.00000     -0.301140E-02
      4995 MEMB     41       QMPE     C310     CTL2    -0.180000       12.0110           0   0.00000     -0.301140E-02
      4996 MEMB     41       QMPE     H10X     HAL2     0.900000E-01   1.00800           0   0.00000     -0.301140E-02
      4997 MEMB     41       QMPE     H10Y     HAL2     0.900000E-01   1.00800           0   0.00000     -0.301140E-02
      4998 MEMB     41       QMPE     C311     CTL2    -0.180000       12.0110           0   0.00000     -0.301140E-02
      4999 MEMB     41       QMPE     H11X     HAL2     0.900000E-01   1.00800           0   0.00000     -0.301140E-02
      5000 MEMB     41       QMPE     H11Y     HAL2     0.900000E-01   1.00800           0   0.00000     -0.301140E-02
      5001 MEMB     41       QMPE     C312     CTL2    -0.180000       12.0110           0   0.00000     -0.301140E-02
      5002 MEMB     41       QMPE     H12X     HAL2     0.900000E-01   1.00800           0   0.00000     -0.301140E-02
      5003 MEMB     41       QMPE     H12Y     HAL2     0.900000E-01   1.00800           0   0.00000     -0.301140E-02
      5004 MEMB     41       QMPE     C313     CTL2    -0.180000       12.0110           0   0.00000     -0.301140E-02
      5005 MEMB     41       QMPE     H13X     HAL2     0.900000E-01   1.00800           0   0.00000     -0.301140E-02
      5006 MEMB     41       QMPE     H13Y     HAL2     0.900000E-01   1.00800           0   0.00000     -0.301140E-02
      5007 MEMB     41       QMPE     C314     CTL2    -0.180000       12.0110           0   0.00000     -0.301140E-02
      5008 MEMB     41       QMPE     H14X     HAL2     0.900000E-01   1.00800           0   0.00000     -0.301140E-02
      5009 MEMB     41       QMPE     H14Y     HAL2     0.900000E-01   1.00800           0   0.00000     -0.301140E-02
      5010 MEMB     41       QMPE     C315     CTL3    -0.270000       12.0110           0   0.00000     -0.301140E-02
      5011 MEMB     41       QMPE     H15X     HAL3     0.900000E-01   1.00800           0   0.00000     -0.301140E-02
      5012 MEMB     41       QMPE     H15Y     HAL3     0.900000E-01   1.00800           0   0.00000     -0.301140E-02
      5013 MEMB     41       QMPE     H15Z     HAL3     0.900000E-01   1.00800           0   0.00000     -0.301140E-02
      5014 MEMB     42       PMPE     N        NH3L    -0.300000       14.0070           0   0.00000     -0.301140E-02
      5015 MEMB     42       PMPE     HN1      HCL      0.330000       1.00800           0   0.00000     -0.301140E-02
      5016 MEMB     42       PMPE     HN2      HCL      0.330000       1.00800           0   0.00000     -0.301140E-02
      5017 MEMB     42       PMPE     HN3      HCL      0.330000       1.00800           0   0.00000     -0.301140E-02
      5018 MEMB     42       PMPE     C12      CTL2     0.130000       12.0110           0   0.00000     -0.301140E-02
      5019 MEMB     42       PMPE     H12A     HAL2     0.900000E-01   1.00800           0   0.00000     -0.301140E-02
      5020 MEMB     42       PMPE     H12B     HAL2     0.900000E-01   1.00800           0   0.00000     -0.301140E-02
      5021 MEMB     42       PMPE     C11      CTL2    -0.800000E-01   12.0110           0   0.00000     -0.301140E-02
      5022 MEMB     42       PMPE     H11A     HAL2     0.900000E-01   1.00800           0   0.00000     -0.301140E-02
      5023 MEMB     42       PMPE     H11B     HAL2     0.900000E-01   1.00800           0   0.00000     -0.301140E-02
      5024 MEMB     42       PMPE     P        PL        1.50000       30.9740           0   0.00000     -0.301140E-02
      5025 MEMB     42       PMPE     O13      O2L     -0.780000       15.9994           0   0.00000     -0.301140E-02
      5026 MEMB     42       PMPE     O14      O2L     -0.780000       15.9994           0   0.00000     -0.301140E-02
      5027 MEMB     42       PMPE     O11      OSLP    -0.570000       15.9994           0   0.00000     -0.301140E-02
      5028 MEMB     42       PMPE     O12      OSLP    -0.570000       15.9994           0   0.00000     -0.301140E-02
      5029 MEMB     42       PMPE     C1       CTL2    -0.800000E-01   12.0110           0   0.00000     -0.301140E-02
      5030 MEMB     42       PMPE     HA       HAL2     0.900000E-01   1.00800           0   0.00000     -0.301140E-02
      5031 MEMB     42       PMPE     HB       HAL2     0.900000E-01   1.00800           0   0.00000     -0.301140E-02
      5032 MEMB     42       PMPE     C2       CTL1     0.170000       12.0110           0   0.00000     -0.301140E-02
      5033 MEMB     42       PMPE     HS       HAL1     0.900000E-01   1.00800           0   0.00000     -0.301140E-02
      5034 MEMB     42       PMPE     O21      OSL     -0.490000       15.9994           0   0.00000     -0.301140E-02
      5035 MEMB     42       PMPE     C21      CL       0.900000       12.0110           0   0.00000     -0.301140E-02
      5036 MEMB     42       PMPE     O22      OBL     -0.630000       15.9994           0   0.00000     -0.301140E-02
      5037 MEMB     42       PMPE     C22      CTL2    -0.220000       12.0110           0   0.00000     -0.301140E-02
      5038 MEMB     42       PMPE     H2R      HAL2     0.900000E-01   1.00800           0   0.00000     -0.301140E-02
      5039 MEMB     42       PMPE     H2S      HAL2     0.900000E-01   1.00800           0   0.00000     -0.301140E-02
      5040 MEMB     42       PMPE     C3       CTL2     0.800000E-01   12.0110           0   0.00000     -0.301140E-02
      5041 MEMB     42       PMPE     HX       HAL2     0.900000E-01   1.00800           0   0.00000     -0.301140E-02
      5042 MEMB     42       PMPE     HY       HAL2     0.900000E-01   1.00800           0   0.00000     -0.301140E-02
      5043 MEMB     42       PMPE     O31      OSL     -0.490000       15.9994           0   0.00000     -0.301140E-02
      5044 MEMB     42       PMPE     C31      CL       0.900000       12.0110           0   0.00000     -0.301140E-02
      5045 MEMB     42       PMPE     O32      OBL     -0.630000       15.9994           0   0.00000     -0.301140E-02
      5046 MEMB     42       PMPE     C32      CTL2    -0.220000       12.0110           0   0.00000     -0.301140E-02
      5047 MEMB     42       PMPE     H2X      HAL2     0.900000E-01   1.00800           0   0.00000     -0.301140E-02
      5048 MEMB     42       PMPE     H2Y      HAL2     0.900000E-01   1.00800           0   0.00000     -0.301140E-02
      5049 MEMB     42       PMPE     C23      CTL2    -0.180000       12.0110           0   0.00000     -0.301140E-02
      5050 MEMB     42       PMPE     H3R      HAL2     0.900000E-01   1.00800           0   0.00000     -0.301140E-02
      5051 MEMB     42       PMPE     H3S      HAL2     0.900000E-01   1.00800           0   0.00000     -0.301140E-02
      5052 MEMB     42       PMPE     C24      CTL2    -0.180000       12.0110           0   0.00000     -0.301140E-02
      5053 MEMB     42       PMPE     H4R      HAL2     0.900000E-01   1.00800           0   0.00000     -0.301140E-02
      5054 MEMB     42       PMPE     H4S      HAL2     0.900000E-01   1.00800           0   0.00000     -0.301140E-02
      5055 MEMB     42       PMPE     C25      CTL2    -0.180000       12.0110           0   0.00000     -0.301140E-02
      5056 MEMB     42       PMPE     H5R      HAL2     0.900000E-01   1.00800           0   0.00000     -0.301140E-02
      5057 MEMB     42       PMPE     H5S      HAL2     0.900000E-01   1.00800           0   0.00000     -0.301140E-02
      5058 MEMB     42       PMPE     C26      CTL2    -0.180000       12.0110           0   0.00000     -0.301140E-02
      5059 MEMB     42       PMPE     H6R      HAL2     0.900000E-01   1.00800           0   0.00000     -0.301140E-02
      5060 MEMB     42       PMPE     H6S      HAL2     0.900000E-01   1.00800           0   0.00000     -0.301140E-02
      5061 MEMB     42       PMPE     C27      CTL2    -0.180000       12.0110           0   0.00000     -0.301140E-02
      5062 MEMB     42       PMPE     H7R      HAL2     0.900000E-01   1.00800           0   0.00000     -0.301140E-02
      5063 MEMB     42       PMPE     H7S      HAL2     0.900000E-01   1.00800           0   0.00000     -0.301140E-02
      5064 MEMB     42       PMPE     C28      CTL2    -0.180000       12.0110           0   0.00000     -0.301140E-02
      5065 MEMB     42       PMPE     H8R      HAL2     0.900000E-01   1.00800           0   0.00000     -0.301140E-02
      5066 MEMB     42       PMPE     H8S      HAL2     0.900000E-01   1.00800           0   0.00000     -0.301140E-02
      5067 MEMB     42       PMPE     C29      CG3RC1  -0.900000E-01   12.0110           0   0.00000     -0.301140E-02
      5068 MEMB     42       PMPE     H9R      HGA1     0.900000E-01   1.00800           0   0.00000     -0.301140E-02
      5069 MEMB     42       PMPE     C217     CG3C31  -0.180000       12.0110           0   0.00000     -0.301140E-02
      5070 MEMB     42       PMPE     H17R     HGA2     0.900000E-01   1.00800           0   0.00000     -0.301140E-02
      5071 MEMB     42       PMPE     H17S     HGA2     0.900000E-01   1.00800           0   0.00000     -0.301140E-02
      5072 MEMB     42       PMPE     C210     CG3RC1  -0.900000E-01   12.0110           0   0.00000     -0.301140E-02
      5073 MEMB     42       PMPE     H10R     HGA1     0.900000E-01   1.00800           0   0.00000     -0.301140E-02
      5074 MEMB     42       PMPE     C211     CTL2    -0.180000       12.0110           0   0.00000     -0.301140E-02
      5075 MEMB     42       PMPE     H11R     HAL2     0.900000E-01   1.00800           0   0.00000     -0.301140E-02
      5076 MEMB     42       PMPE     H11S     HAL2     0.900000E-01   1.00800           0   0.00000     -0.301140E-02
      5077 MEMB     42       PMPE     C212     CTL2    -0.180000       12.0110           0   0.00000     -0.301140E-02
      5078 MEMB     42       PMPE     H12R     HAL2     0.900000E-01   1.00800           0   0.00000     -0.301140E-02
      5079 MEMB     42       PMPE     H12S     HAL2     0.900000E-01   1.00800           0   0.00000     -0.301140E-02
      5080 MEMB     42       PMPE     C213     CTL2    -0.180000       12.0110           0   0.00000     -0.301140E-02
      5081 MEMB     42       PMPE     H13R     HAL2     0.900000E-01   1.00800           0   0.00000     -0.301140E-02
      5082 MEMB     42       PMPE     H13S     HAL2     0.900000E-01   1.00800           0   0.00000     -0.301140E-02
      5083 MEMB     42       PMPE     C214     CTL2    -0.180000       12.0110           0   0.00000     -0.301140E-02
      5084 MEMB     42       PMPE     H14R     HAL2     0.900000E-01   1.00800           0   0.00000     -0.301140E-02
      5085 MEMB     42       PMPE     H14S     HAL2     0.900000E-01   1.00800           0   0.00000     -0.301140E-02
      5086 MEMB     42       PMPE     C215     CTL2    -0.180000       12.0110           0   0.00000     -0.301140E-02
      5087 MEMB     42       PMPE     H15R     HAL2     0.900000E-01   1.00800           0   0.00000     -0.301140E-02
      5088 MEMB     42       PMPE     H15S     HAL2     0.900000E-01   1.00800           0   0.00000     -0.301140E-02
      5089 MEMB     42       PMPE     C216     CTL3    -0.270000       12.0110           0   0.00000     -0.301140E-02
      5090 MEMB     42       PMPE     H16R     HAL3     0.900000E-01   1.00800           0   0.00000     -0.301140E-02
      5091 MEMB     42       PMPE     H16S     HAL3     0.900000E-01   1.00800           0   0.00000     -0.301140E-02
      5092 MEMB     42       PMPE     H16T     HAL3     0.900000E-01   1.00800           0   0.00000     -0.301140E-02
      5093 MEMB     42       PMPE     C33      CTL2    -0.180000       12.0110           0   0.00000     -0.301140E-02
      5094 MEMB     42       PMPE     H3X      HAL2     0.900000E-01   1.00800           0   0.00000     -0.301140E-02
      5095 MEMB     42       PMPE     H3Y      HAL2     0.900000E-01   1.00800           0   0.00000     -0.301140E-02
      5096 MEMB     42       PMPE     C34      CTL2    -0.180000       12.0110           0   0.00000     -0.301140E-02
      5097 MEMB     42       PMPE     H4X      HAL2     0.900000E-01   1.00800           0   0.00000     -0.301140E-02
      5098 MEMB     42       PMPE     H4Y      HAL2     0.900000E-01   1.00800           0   0.00000     -0.301140E-02
      5099 MEMB     42       PMPE     C35      CTL2    -0.180000       12.0110           0   0.00000     -0.301140E-02
      5100 MEMB     42       PMPE     H5X      HAL2     0.900000E-01   1.00800           0   0.00000     -0.301140E-02
      5101 MEMB     42       PMPE     H5Y      HAL2     0.900000E-01   1.00800           0   0.00000     -0.301140E-02
      5102 MEMB     42       PMPE     C36      CTL2    -0.180000       12.0110           0   0.00000     -0.301140E-02
      5103 MEMB     42       PMPE     H6X      HAL2     0.900000E-01   1.00800           0   0.00000     -0.301140E-02
      5104 MEMB     42       PMPE     H6Y      HAL2     0.900000E-01   1.00800           0   0.00000     -0.301140E-02
      5105 MEMB     42       PMPE     C37      CTL2    -0.180000       12.0110           0   0.00000     -0.301140E-02
      5106 MEMB     42       PMPE     H7X      HAL2     0.900000E-01   1.00800           0   0.00000     -0.301140E-02
      5107 MEMB     42       PMPE     H7Y      HAL2     0.900000E-01   1.00800           0   0.00000     -0.301140E-02
      5108 MEMB     42       PMPE     C38      CTL2    -0.180000       12.0110           0   0.00000     -0.301140E-02
      5109 MEMB     42       PMPE     H8X      HAL2     0.900000E-01   1.00800           0   0.00000     -0.301140E-02
      5110 MEMB     42       PMPE     H8Y      HAL2     0.900000E-01   1.00800           0   0.00000     -0.301140E-02
      5111 MEMB     42       PMPE     C39      CTL2    -0.180000       12.0110           0   0.00000     -0.301140E-02
      5112 MEMB     42       PMPE     H9X      HAL2     0.900000E-01   1.00800           0   0.00000     -0.301140E-02
      5113 MEMB     42       PMPE     H9Y      HAL2     0.900000E-01   1.00800           0   0.00000     -0.301140E-02
      5114 MEMB     42       PMPE     C310     CTL2    -0.180000       12.0110           0   0.00000     -0.301140E-02
      5115 MEMB     42       PMPE     H10X     HAL2     0.900000E-01   1.00800           0   0.00000     -0.301140E-02
      5116 MEMB     42       PMPE     H10Y     HAL2     0.900000E-01   1.00800           0   0.00000     -0.301140E-02
      5117 MEMB     42       PMPE     C311     CTL2    -0.180000       12.0110           0   0.00000     -0.301140E-02
      5118 MEMB     42       PMPE     H11X     HAL2     0.900000E-01   1.00800           0   0.00000     -0.301140E-02
      5119 MEMB     42       PMPE     H11Y     HAL2     0.900000E-01   1.00800           0   0.00000     -0.301140E-02
      5120 MEMB     42       PMPE     C312     CTL2    -0.180000       12.0110           0   0.00000     -0.301140E-02
      5121 MEMB     42       PMPE     H12X     HAL2     0.900000E-01   1.00800           0   0.00000     -0.301140E-02
      5122 MEMB     42       PMPE     H12Y     HAL2     0.900000E-01   1.00800           0   0.00000     -0.301140E-02
      5123 MEMB     42       PMPE     C313     CTL2    -0.180000       12.0110           0   0.00000     -0.301140E-02
      5124 MEMB     42       PMPE     H13X     HAL2     0.900000E-01   1.00800           0   0.00000     -0.301140E-02
      5125 MEMB     42       PMPE     H13Y     HAL2     0.900000E-01   1.00800           0   0.00000     -0.301140E-02
      5126 MEMB     42       PMPE     C314     CTL2    -0.180000       12.0110           0   0.00000     -0.301140E-02
      5127 MEMB     42       PMPE     H14X     HAL2     0.900000E-01   1.00800           0   0.00000     -0.301140E-02
      5128 MEMB     42       PMPE     H14Y     HAL2     0.900000E-01   1.00800           0   0.00000     -0.301140E-02
      5129 MEMB     42       PMPE     C315     CTL2    -0.180000       12.0110           0   0.00000     -0.301140E-02
      5130 MEMB     42       PMPE     H15X     HAL2     0.900000E-01   1.00800           0   0.00000     -0.301140E-02
      5131 MEMB     42       PMPE     H15Y     HAL2     0.900000E-01   1.00800           0   0.00000     -0.301140E-02
      5132 MEMB     42       PMPE     C316     CTL3    -0.270000       12.0110           0   0.00000     -0.301140E-02
      5133 MEMB     42       PMPE     H16X     HAL3     0.900000E-01   1.00800           0   0.00000     -0.301140E-02
      5134 MEMB     42       PMPE     H16Y     HAL3     0.900000E-01   1.00800           0   0.00000     -0.301140E-02
      5135 MEMB     42       PMPE     H16Z     HAL3     0.900000E-01   1.00800           0   0.00000     -0.301140E-02
      5136 MEMB     43       QMPE     N        NH3L    -0.300000       14.0070           0   0.00000     -0.301140E-02
      5137 MEMB     43       QMPE     HN1      HCL      0.330000       1.00800           0   0.00000     -0.301140E-02
      5138 MEMB     43       QMPE     HN2      HCL      0.330000       1.00800           0   0.00000     -0.301140E-02
      5139 MEMB     43       QMPE     HN3      HCL      0.330000       1.00800           0   0.00000     -0.301140E-02
      5140 MEMB     43       QMPE     C12      CTL2     0.130000       12.0110           0   0.00000     -0.301140E-02
      5141 MEMB     43       QMPE     H12A     HAL2     0.900000E-01   1.00800           0   0.00000     -0.301140E-02
      5142 MEMB     43       QMPE     H12B     HAL2     0.900000E-01   1.00800           0   0.00000     -0.301140E-02
      5143 MEMB     43       QMPE     C11      CTL2    -0.800000E-01   12.0110           0   0.00000     -0.301140E-02
      5144 MEMB     43       QMPE     H11A     HAL2     0.900000E-01   1.00800           0   0.00000     -0.301140E-02
      5145 MEMB     43       QMPE     H11B     HAL2     0.900000E-01   1.00800           0   0.00000     -0.301140E-02
      5146 MEMB     43       QMPE     P        PL        1.50000       30.9740           0   0.00000     -0.301140E-02
      5147 MEMB     43       QMPE     O13      O2L     -0.780000       15.9994           0   0.00000     -0.301140E-02
      5148 MEMB     43       QMPE     O14      O2L     -0.780000       15.9994           0   0.00000     -0.301140E-02
      5149 MEMB     43       QMPE     O11      OSLP    -0.570000       15.9994           0   0.00000     -0.301140E-02
      5150 MEMB     43       QMPE     O12      OSLP    -0.570000       15.9994           0   0.00000     -0.301140E-02
      5151 MEMB     43       QMPE     C1       CTL2    -0.800000E-01   12.0110           0   0.00000     -0.301140E-02
      5152 MEMB     43       QMPE     HA       HAL2     0.900000E-01   1.00800           0   0.00000     -0.301140E-02
      5153 MEMB     43       QMPE     HB       HAL2     0.900000E-01   1.00800           0   0.00000     -0.301140E-02
      5154 MEMB     43       QMPE     C2       CTL1     0.170000       12.0110           0   0.00000     -0.301140E-02
      5155 MEMB     43       QMPE     HS       HAL1     0.900000E-01   1.00800           0   0.00000     -0.301140E-02
      5156 MEMB     43       QMPE     O21      OSL     -0.490000       15.9994           0   0.00000     -0.301140E-02
      5157 MEMB     43       QMPE     C21      CL       0.900000       12.0110           0   0.00000     -0.301140E-02
      5158 MEMB     43       QMPE     O22      OBL     -0.630000       15.9994           0   0.00000     -0.301140E-02
      5159 MEMB     43       QMPE     C22      CTL2    -0.220000       12.0110           0   0.00000     -0.301140E-02
      5160 MEMB     43       QMPE     H2R      HAL2     0.900000E-01   1.00800           0   0.00000     -0.301140E-02
      5161 MEMB     43       QMPE     H2S      HAL2     0.900000E-01   1.00800           0   0.00000     -0.301140E-02
      5162 MEMB     43       QMPE     C3       CTL2     0.800000E-01   12.0110           0   0.00000     -0.301140E-02
      5163 MEMB     43       QMPE     HX       HAL2     0.900000E-01   1.00800           0   0.00000     -0.301140E-02
      5164 MEMB     43       QMPE     HY       HAL2     0.900000E-01   1.00800           0   0.00000     -0.301140E-02
      5165 MEMB     43       QMPE     O31      OSL     -0.490000       15.9994           0   0.00000     -0.301140E-02
      5166 MEMB     43       QMPE     C31      CL       0.900000       12.0110           0   0.00000     -0.301140E-02
      5167 MEMB     43       QMPE     O32      OBL     -0.630000       15.9994           0   0.00000     -0.301140E-02
      5168 MEMB     43       QMPE     C32      CTL2    -0.220000       12.0110           0   0.00000     -0.301140E-02
      5169 MEMB     43       QMPE     H2X      HAL2     0.900000E-01   1.00800           0   0.00000     -0.301140E-02
      5170 MEMB     43       QMPE     H2Y      HAL2     0.900000E-01   1.00800           0   0.00000     -0.301140E-02
      5171 MEMB     43       QMPE     C23      CTL2    -0.180000       12.0110           0   0.00000     -0.301140E-02
      5172 MEMB     43       QMPE     H3R      HAL2     0.900000E-01   1.00800           0   0.00000     -0.301140E-02
      5173 MEMB     43       QMPE     H3S      HAL2     0.900000E-01   1.00800           0   0.00000     -0.301140E-02
      5174 MEMB     43       QMPE     C24      CTL2    -0.180000       12.0110           0   0.00000     -0.301140E-02
      5175 MEMB     43       QMPE     H4R      HAL2     0.900000E-01   1.00800           0   0.00000     -0.301140E-02
      5176 MEMB     43       QMPE     H4S      HAL2     0.900000E-01   1.00800           0   0.00000     -0.301140E-02
      5177 MEMB     43       QMPE     C25      CTL2    -0.180000       12.0110           0   0.00000     -0.301140E-02
      5178 MEMB     43       QMPE     H5R      HAL2     0.900000E-01   1.00800           0   0.00000     -0.301140E-02
      5179 MEMB     43       QMPE     H5S      HAL2     0.900000E-01   1.00800           0   0.00000     -0.301140E-02
      5180 MEMB     43       QMPE     C26      CTL2    -0.180000       12.0110           0   0.00000     -0.301140E-02
      5181 MEMB     43       QMPE     H6R      HAL2     0.900000E-01   1.00800           0   0.00000     -0.301140E-02
      5182 MEMB     43       QMPE     H6S      HAL2     0.900000E-01   1.00800           0   0.00000     -0.301140E-02
      5183 MEMB     43       QMPE     C27      CTL2    -0.180000       12.0110           0   0.00000     -0.301140E-02
      5184 MEMB     43       QMPE     H7R      HAL2     0.900000E-01   1.00800           0   0.00000     -0.301140E-02
      5185 MEMB     43       QMPE     H7S      HAL2     0.900000E-01   1.00800           0   0.00000     -0.301140E-02
      5186 MEMB     43       QMPE     C28      CTL2    -0.180000       12.0110           0   0.00000     -0.301140E-02
      5187 MEMB     43       QMPE     H8R      HAL2     0.900000E-01   1.00800           0   0.00000     -0.301140E-02
      5188 MEMB     43       QMPE     H8S      HAL2     0.900000E-01   1.00800           0   0.00000     -0.301140E-02
      5189 MEMB     43       QMPE     C29      CG3RC1  -0.900000E-01   12.0110           0   0.00000     -0.301140E-02
      5190 MEMB     43       QMPE     H9R      HGA1     0.900000E-01   1.00800           0   0.00000     -0.301140E-02
      5191 MEMB     43       QMPE     C217     CG3C31  -0.180000       12.0110           0   0.00000     -0.301140E-02
      5192 MEMB     43       QMPE     H17R     HGA2     0.900000E-01   1.00800           0   0.00000     -0.301140E-02
      5193 MEMB     43       QMPE     H17S     HGA2     0.900000E-01   1.00800           0   0.00000     -0.301140E-02
      5194 MEMB     43       QMPE     C210     CG3RC1  -0.900000E-01   12.0110           0   0.00000     -0.301140E-02
      5195 MEMB     43       QMPE     H10R     HGA1     0.900000E-01   1.00800           0   0.00000     -0.301140E-02
      5196 MEMB     43       QMPE     C211     CTL2    -0.180000       12.0110           0   0.00000     -0.301140E-02
      5197 MEMB     43       QMPE     H11R     HAL2     0.900000E-01   1.00800           0   0.00000     -0.301140E-02
      5198 MEMB     43       QMPE     H11S     HAL2     0.900000E-01   1.00800           0   0.00000     -0.301140E-02
      5199 MEMB     43       QMPE     C212     CTL2    -0.180000       12.0110           0   0.00000     -0.301140E-02
      5200 MEMB     43       QMPE     H12R     HAL2     0.900000E-01   1.00800           0   0.00000     -0.301140E-02
      5201 MEMB     43       QMPE     H12S     HAL2     0.900000E-01   1.00800           0   0.00000     -0.301140E-02
      5202 MEMB     43       QMPE     C213     CTL2    -0.180000       12.0110           0   0.00000     -0.301140E-02
      5203 MEMB     43       QMPE     H13R     HAL2     0.900000E-01   1.00800           0   0.00000     -0.301140E-02
      5204 MEMB     43       QMPE     H13S     HAL2     0.900000E-01   1.00800           0   0.00000     -0.301140E-02
      5205 MEMB     43       QMPE     C214     CTL2    -0.180000       12.0110           0   0.00000     -0.301140E-02
      5206 MEMB     43       QMPE     H14R     HAL2     0.900000E-01   1.00800           0   0.00000     -0.301140E-02
      5207 MEMB     43       QMPE     H14S     HAL2     0.900000E-01   1.00800           0   0.00000     -0.301140E-02
      5208 MEMB     43       QMPE     C215     CTL2    -0.180000       12.0110           0   0.00000     -0.301140E-02
      5209 MEMB     43       QMPE     H15R     HAL2     0.900000E-01   1.00800           0   0.00000     -0.301140E-02
      5210 MEMB     43       QMPE     H15S     HAL2     0.900000E-01   1.00800           0   0.00000     -0.301140E-02
      5211 MEMB     43       QMPE     C216     CTL3    -0.270000       12.0110           0   0.00000     -0.301140E-02
      5212 MEMB     43       QMPE     H16R     HAL3     0.900000E-01   1.00800           0   0.00000     -0.301140E-02
      5213 MEMB     43       QMPE     H16S     HAL3     0.900000E-01   1.00800           0   0.00000     -0.301140E-02
      5214 MEMB     43       QMPE     H16T     HAL3     0.900000E-01   1.00800           0   0.00000     -0.301140E-02
      5215 MEMB     43       QMPE     C33      CTL2    -0.180000       12.0110           0   0.00000     -0.301140E-02
      5216 MEMB     43       QMPE     H3X      HAL2     0.900000E-01   1.00800           0   0.00000     -0.301140E-02
      5217 MEMB     43       QMPE     H3Y      HAL2     0.900000E-01   1.00800           0   0.00000     -0.301140E-02
      5218 MEMB     43       QMPE     C34      CTL2    -0.180000       12.0110           0   0.00000     -0.301140E-02
      5219 MEMB     43       QMPE     H4X      HAL2     0.900000E-01   1.00800           0   0.00000     -0.301140E-02
      5220 MEMB     43       QMPE     H4Y      HAL2     0.900000E-01   1.00800           0   0.00000     -0.301140E-02
      5221 MEMB     43       QMPE     C35      CTL2    -0.180000       12.0110           0   0.00000     -0.301140E-02
      5222 MEMB     43       QMPE     H5X      HAL2     0.900000E-01   1.00800           0   0.00000     -0.301140E-02
      5223 MEMB     43       QMPE     H5Y      HAL2     0.900000E-01   1.00800           0   0.00000     -0.301140E-02
      5224 MEMB     43       QMPE     C36      CTL2    -0.180000       12.0110           0   0.00000     -0.301140E-02
      5225 MEMB     43       QMPE     H6X      HAL2     0.900000E-01   1.00800           0   0.00000     -0.301140E-02
      5226 MEMB     43       QMPE     H6Y      HAL2     0.900000E-01   1.00800           0   0.00000     -0.301140E-02
      5227 MEMB     43       QMPE     C37      CTL2    -0.180000       12.0110           0   0.00000     -0.301140E-02
      5228 MEMB     43       QMPE     H7X      HAL2     0.900000E-01   1.00800           0   0.00000     -0.301140E-02
      5229 MEMB     43       QMPE     H7Y      HAL2     0.900000E-01   1.00800           0   0.00000     -0.301140E-02
      5230 MEMB     43       QMPE     C38      CTL2    -0.180000       12.0110           0   0.00000     -0.301140E-02
      5231 MEMB     43       QMPE     H8X      HAL2     0.900000E-01   1.00800           0   0.00000     -0.301140E-02
      5232 MEMB     43       QMPE     H8Y      HAL2     0.900000E-01   1.00800           0   0.00000     -0.301140E-02
      5233 MEMB     43       QMPE     C39      CTL2    -0.180000       12.0110           0   0.00000     -0.301140E-02
      5234 MEMB     43       QMPE     H9X      HAL2     0.900000E-01   1.00800           0   0.00000     -0.301140E-02
      5235 MEMB     43       QMPE     H9Y      HAL2     0.900000E-01   1.00800           0   0.00000     -0.301140E-02
      5236 MEMB     43       QMPE     C310     CTL2    -0.180000       12.0110           0   0.00000     -0.301140E-02
      5237 MEMB     43       QMPE     H10X     HAL2     0.900000E-01   1.00800           0   0.00000     -0.301140E-02
      5238 MEMB     43       QMPE     H10Y     HAL2     0.900000E-01   1.00800           0   0.00000     -0.301140E-02
      5239 MEMB     43       QMPE     C311     CTL2    -0.180000       12.0110           0   0.00000     -0.301140E-02
      5240 MEMB     43       QMPE     H11X     HAL2     0.900000E-01   1.00800           0   0.00000     -0.301140E-02
      5241 MEMB     43       QMPE     H11Y     HAL2     0.900000E-01   1.00800           0   0.00000     -0.301140E-02
      5242 MEMB     43       QMPE     C312     CTL2    -0.180000       12.0110           0   0.00000     -0.301140E-02
      5243 MEMB     43       QMPE     H12X     HAL2     0.900000E-01   1.00800           0   0.00000     -0.301140E-02
      5244 MEMB     43       QMPE     H12Y     HAL2     0.900000E-01   1.00800           0   0.00000     -0.301140E-02
      5245 MEMB     43       QMPE     C313     CTL2    -0.180000       12.0110           0   0.00000     -0.301140E-02
      5246 MEMB     43       QMPE     H13X     HAL2     0.900000E-01   1.00800           0   0.00000     -0.301140E-02
      5247 MEMB     43       QMPE     H13Y     HAL2     0.900000E-01   1.00800           0   0.00000     -0.301140E-02
      5248 MEMB     43       QMPE     C314     CTL2    -0.180000       12.0110           0   0.00000     -0.301140E-02
      5249 MEMB     43       QMPE     H14X     HAL2     0.900000E-01   1.00800           0   0.00000     -0.301140E-02
      5250 MEMB     43       QMPE     H14Y     HAL2     0.900000E-01   1.00800           0   0.00000     -0.301140E-02
      5251 MEMB     43       QMPE     C315     CTL3    -0.270000       12.0110           0   0.00000     -0.301140E-02
      5252 MEMB     43       QMPE     H15X     HAL3     0.900000E-01   1.00800           0   0.00000     -0.301140E-02
      5253 MEMB     43       QMPE     H15Y     HAL3     0.900000E-01   1.00800           0   0.00000     -0.301140E-02
      5254 MEMB     43       QMPE     H15Z     HAL3     0.900000E-01   1.00800           0   0.00000     -0.301140E-02
      5255 MEMB     44       PMPE     N        NH3L    -0.300000       14.0070           0   0.00000     -0.301140E-02
      5256 MEMB     44       PMPE     HN1      HCL      0.330000       1.00800           0   0.00000     -0.301140E-02
      5257 MEMB     44       PMPE     HN2      HCL      0.330000       1.00800           0   0.00000     -0.301140E-02
      5258 MEMB     44       PMPE     HN3      HCL      0.330000       1.00800           0   0.00000     -0.301140E-02
      5259 MEMB     44       PMPE     C12      CTL2     0.130000       12.0110           0   0.00000     -0.301140E-02
      5260 MEMB     44       PMPE     H12A     HAL2     0.900000E-01   1.00800           0   0.00000     -0.301140E-02
      5261 MEMB     44       PMPE     H12B     HAL2     0.900000E-01   1.00800           0   0.00000     -0.301140E-02
      5262 MEMB     44       PMPE     C11      CTL2    -0.800000E-01   12.0110           0   0.00000     -0.301140E-02
      5263 MEMB     44       PMPE     H11A     HAL2     0.900000E-01   1.00800           0   0.00000     -0.301140E-02
      5264 MEMB     44       PMPE     H11B     HAL2     0.900000E-01   1.00800           0   0.00000     -0.301140E-02
      5265 MEMB     44       PMPE     P        PL        1.50000       30.9740           0   0.00000     -0.301140E-02
      5266 MEMB     44       PMPE     O13      O2L     -0.780000       15.9994           0   0.00000     -0.301140E-02
      5267 MEMB     44       PMPE     O14      O2L     -0.780000       15.9994           0   0.00000     -0.301140E-02
      5268 MEMB     44       PMPE     O11      OSLP    -0.570000       15.9994           0   0.00000     -0.301140E-02
      5269 MEMB     44       PMPE     O12      OSLP    -0.570000       15.9994           0   0.00000     -0.301140E-02
      5270 MEMB     44       PMPE     C1       CTL2    -0.800000E-01   12.0110           0   0.00000     -0.301140E-02
      5271 MEMB     44       PMPE     HA       HAL2     0.900000E-01   1.00800           0   0.00000     -0.301140E-02
      5272 MEMB     44       PMPE     HB       HAL2     0.900000E-01   1.00800           0   0.00000     -0.301140E-02
      5273 MEMB     44       PMPE     C2       CTL1     0.170000       12.0110           0   0.00000     -0.301140E-02
      5274 MEMB     44       PMPE     HS       HAL1     0.900000E-01   1.00800           0   0.00000     -0.301140E-02
      5275 MEMB     44       PMPE     O21      OSL     -0.490000       15.9994           0   0.00000     -0.301140E-02
      5276 MEMB     44       PMPE     C21      CL       0.900000       12.0110           0   0.00000     -0.301140E-02
      5277 MEMB     44       PMPE     O22      OBL     -0.630000       15.9994           0   0.00000     -0.301140E-02
      5278 MEMB     44       PMPE     C22      CTL2    -0.220000       12.0110           0   0.00000     -0.301140E-02
      5279 MEMB     44       PMPE     H2R      HAL2     0.900000E-01   1.00800           0   0.00000     -0.301140E-02
      5280 MEMB     44       PMPE     H2S      HAL2     0.900000E-01   1.00800           0   0.00000     -0.301140E-02
      5281 MEMB     44       PMPE     C3       CTL2     0.800000E-01   12.0110           0   0.00000     -0.301140E-02
      5282 MEMB     44       PMPE     HX       HAL2     0.900000E-01   1.00800           0   0.00000     -0.301140E-02
      5283 MEMB     44       PMPE     HY       HAL2     0.900000E-01   1.00800           0   0.00000     -0.301140E-02
      5284 MEMB     44       PMPE     O31      OSL     -0.490000       15.9994           0   0.00000     -0.301140E-02
      5285 MEMB     44       PMPE     C31      CL       0.900000       12.0110           0   0.00000     -0.301140E-02
      5286 MEMB     44       PMPE     O32      OBL     -0.630000       15.9994           0   0.00000     -0.301140E-02
      5287 MEMB     44       PMPE     C32      CTL2    -0.220000       12.0110           0   0.00000     -0.301140E-02
      5288 MEMB     44       PMPE     H2X      HAL2     0.900000E-01   1.00800           0   0.00000     -0.301140E-02
      5289 MEMB     44       PMPE     H2Y      HAL2     0.900000E-01   1.00800           0   0.00000     -0.301140E-02
      5290 MEMB     44       PMPE     C23      CTL2    -0.180000       12.0110           0   0.00000     -0.301140E-02
      5291 MEMB     44       PMPE     H3R      HAL2     0.900000E-01   1.00800           0   0.00000     -0.301140E-02
      5292 MEMB     44       PMPE     H3S      HAL2     0.900000E-01   1.00800           0   0.00000     -0.301140E-02
      5293 MEMB     44       PMPE     C24      CTL2    -0.180000       12.0110           0   0.00000     -0.301140E-02
      5294 MEMB     44       PMPE     H4R      HAL2     0.900000E-01   1.00800           0   0.00000     -0.301140E-02
      5295 MEMB     44       PMPE     H4S      HAL2     0.900000E-01   1.00800           0   0.00000     -0.301140E-02
      5296 MEMB     44       PMPE     C25      CTL2    -0.180000       12.0110           0   0.00000     -0.301140E-02
      5297 MEMB     44       PMPE     H5R      HAL2     0.900000E-01   1.00800           0   0.00000     -0.301140E-02
      5298 MEMB     44       PMPE     H5S      HAL2     0.900000E-01   1.00800           0   0.00000     -0.301140E-02
      5299 MEMB     44       PMPE     C26      CTL2    -0.180000       12.0110           0   0.00000     -0.301140E-02
      5300 MEMB     44       PMPE     H6R      HAL2     0.900000E-01   1.00800           0   0.00000     -0.301140E-02
      5301 MEMB     44       PMPE     H6S      HAL2     0.900000E-01   1.00800           0   0.00000     -0.301140E-02
      5302 MEMB     44       PMPE     C27      CTL2    -0.180000       12.0110           0   0.00000     -0.301140E-02
      5303 MEMB     44       PMPE     H7R      HAL2     0.900000E-01   1.00800           0   0.00000     -0.301140E-02
      5304 MEMB     44       PMPE     H7S      HAL2     0.900000E-01   1.00800           0   0.00000     -0.301140E-02
      5305 MEMB     44       PMPE     C28      CTL2    -0.180000       12.0110           0   0.00000     -0.301140E-02
      5306 MEMB     44       PMPE     H8R      HAL2     0.900000E-01   1.00800           0   0.00000     -0.301140E-02
      5307 MEMB     44       PMPE     H8S      HAL2     0.900000E-01   1.00800           0   0.00000     -0.301140E-02
      5308 MEMB     44       PMPE     C29      CG3RC1  -0.900000E-01   12.0110           0   0.00000     -0.301140E-02
      5309 MEMB     44       PMPE     H9R      HGA1     0.900000E-01   1.00800           0   0.00000     -0.301140E-02
      5310 MEMB     44       PMPE     C217     CG3C31  -0.180000       12.0110           0   0.00000     -0.301140E-02
      5311 MEMB     44       PMPE     H17R     HGA2     0.900000E-01   1.00800           0   0.00000     -0.301140E-02
      5312 MEMB     44       PMPE     H17S     HGA2     0.900000E-01   1.00800           0   0.00000     -0.301140E-02
      5313 MEMB     44       PMPE     C210     CG3RC1  -0.900000E-01   12.0110           0   0.00000     -0.301140E-02
      5314 MEMB     44       PMPE     H10R     HGA1     0.900000E-01   1.00800           0   0.00000     -0.301140E-02
      5315 MEMB     44       PMPE     C211     CTL2    -0.180000       12.0110           0   0.00000     -0.301140E-02
      5316 MEMB     44       PMPE     H11R     HAL2     0.900000E-01   1.00800           0   0.00000     -0.301140E-02
      5317 MEMB     44       PMPE     H11S     HAL2     0.900000E-01   1.00800           0   0.00000     -0.301140E-02
      5318 MEMB     44       PMPE     C212     CTL2    -0.180000       12.0110           0   0.00000     -0.301140E-02
      5319 MEMB     44       PMPE     H12R     HAL2     0.900000E-01   1.00800           0   0.00000     -0.301140E-02
      5320 MEMB     44       PMPE     H12S     HAL2     0.900000E-01   1.00800           0   0.00000     -0.301140E-02
      5321 MEMB     44       PMPE     C213     CTL2    -0.180000       12.0110           0   0.00000     -0.301140E-02
      5322 MEMB     44       PMPE     H13R     HAL2     0.900000E-01   1.00800           0   0.00000     -0.301140E-02
      5323 MEMB     44       PMPE     H13S     HAL2     0.900000E-01   1.00800           0   0.00000     -0.301140E-02
      5324 MEMB     44       PMPE     C214     CTL2    -0.180000       12.0110           0   0.00000     -0.301140E-02
      5325 MEMB     44       PMPE     H14R     HAL2     0.900000E-01   1.00800           0   0.00000     -0.301140E-02
      5326 MEMB     44       PMPE     H14S     HAL2     0.900000E-01   1.00800           0   0.00000     -0.301140E-02
      5327 MEMB     44       PMPE     C215     CTL2    -0.180000       12.0110           0   0.00000     -0.301140E-02
      5328 MEMB     44       PMPE     H15R     HAL2     0.900000E-01   1.00800           0   0.00000     -0.301140E-02
      5329 MEMB     44       PMPE     H15S     HAL2     0.900000E-01   1.00800           0   0.00000     -0.301140E-02
      5330 MEMB     44       PMPE     C216     CTL3    -0.270000       12.0110           0   0.00000     -0.301140E-02
      5331 MEMB     44       PMPE     H16R     HAL3     0.900000E-01   1.00800           0   0.00000     -0.301140E-02
      5332 MEMB     44       PMPE     H16S     HAL3     0.900000E-01   1.00800           0   0.00000     -0.301140E-02
      5333 MEMB     44       PMPE     H16T     HAL3     0.900000E-01   1.00800           0   0.00000     -0.301140E-02
      5334 MEMB     44       PMPE     C33      CTL2    -0.180000       12.0110           0   0.00000     -0.301140E-02
      5335 MEMB     44       PMPE     H3X      HAL2     0.900000E-01   1.00800           0   0.00000     -0.301140E-02
      5336 MEMB     44       PMPE     H3Y      HAL2     0.900000E-01   1.00800           0   0.00000     -0.301140E-02
      5337 MEMB     44       PMPE     C34      CTL2    -0.180000       12.0110           0   0.00000     -0.301140E-02
      5338 MEMB     44       PMPE     H4X      HAL2     0.900000E-01   1.00800           0   0.00000     -0.301140E-02
      5339 MEMB     44       PMPE     H4Y      HAL2     0.900000E-01   1.00800           0   0.00000     -0.301140E-02
      5340 MEMB     44       PMPE     C35      CTL2    -0.180000       12.0110           0   0.00000     -0.301140E-02
      5341 MEMB     44       PMPE     H5X      HAL2     0.900000E-01   1.00800           0   0.00000     -0.301140E-02
      5342 MEMB     44       PMPE     H5Y      HAL2     0.900000E-01   1.00800           0   0.00000     -0.301140E-02
      5343 MEMB     44       PMPE     C36      CTL2    -0.180000       12.0110           0   0.00000     -0.301140E-02
      5344 MEMB     44       PMPE     H6X      HAL2     0.900000E-01   1.00800           0   0.00000     -0.301140E-02
      5345 MEMB     44       PMPE     H6Y      HAL2     0.900000E-01   1.00800           0   0.00000     -0.301140E-02
      5346 MEMB     44       PMPE     C37      CTL2    -0.180000       12.0110           0   0.00000     -0.301140E-02
      5347 MEMB     44       PMPE     H7X      HAL2     0.900000E-01   1.00800           0   0.00000     -0.301140E-02
      5348 MEMB     44       PMPE     H7Y      HAL2     0.900000E-01   1.00800           0   0.00000     -0.301140E-02
      5349 MEMB     44       PMPE     C38      CTL2    -0.180000       12.0110           0   0.00000     -0.301140E-02
      5350 MEMB     44       PMPE     H8X      HAL2     0.900000E-01   1.00800           0   0.00000     -0.301140E-02
      5351 MEMB     44       PMPE     H8Y      HAL2     0.900000E-01   1.00800           0   0.00000     -0.301140E-02
      5352 MEMB     44       PMPE     C39      CTL2    -0.180000       12.0110           0   0.00000     -0.301140E-02
      5353 MEMB     44       PMPE     H9X      HAL2     0.900000E-01   1.00800           0   0.00000     -0.301140E-02
      5354 MEMB     44       PMPE     H9Y      HAL2     0.900000E-01   1.00800           0   0.00000     -0.301140E-02
      5355 MEMB     44       PMPE     C310     CTL2    -0.180000       12.0110           0   0.00000     -0.301140E-02
      5356 MEMB     44       PMPE     H10X     HAL2     0.900000E-01   1.00800           0   0.00000     -0.301140E-02
      5357 MEMB     44       PMPE     H10Y     HAL2     0.900000E-01   1.00800           0   0.00000     -0.301140E-02
      5358 MEMB     44       PMPE     C311     CTL2    -0.180000       12.0110           0   0.00000     -0.301140E-02
      5359 MEMB     44       PMPE     H11X     HAL2     0.900000E-01   1.00800           0   0.00000     -0.301140E-02
      5360 MEMB     44       PMPE     H11Y     HAL2     0.900000E-01   1.00800           0   0.00000     -0.301140E-02
      5361 MEMB     44       PMPE     C312     CTL2    -0.180000       12.0110           0   0.00000     -0.301140E-02
      5362 MEMB     44       PMPE     H12X     HAL2     0.900000E-01   1.00800           0   0.00000     -0.301140E-02
      5363 MEMB     44       PMPE     H12Y     HAL2     0.900000E-01   1.00800           0   0.00000     -0.301140E-02
      5364 MEMB     44       PMPE     C313     CTL2    -0.180000       12.0110           0   0.00000     -0.301140E-02
      5365 MEMB     44       PMPE     H13X     HAL2     0.900000E-01   1.00800           0   0.00000     -0.301140E-02
      5366 MEMB     44       PMPE     H13Y     HAL2     0.900000E-01   1.00800           0   0.00000     -0.301140E-02
      5367 MEMB     44       PMPE     C314     CTL2    -0.180000       12.0110           0   0.00000     -0.301140E-02
      5368 MEMB     44       PMPE     H14X     HAL2     0.900000E-01   1.00800           0   0.00000     -0.301140E-02
      5369 MEMB     44       PMPE     H14Y     HAL2     0.900000E-01   1.00800           0   0.00000     -0.301140E-02
      5370 MEMB     44       PMPE     C315     CTL2    -0.180000       12.0110           0   0.00000     -0.301140E-02
      5371 MEMB     44       PMPE     H15X     HAL2     0.900000E-01   1.00800           0   0.00000     -0.301140E-02
      5372 MEMB     44       PMPE     H15Y     HAL2     0.900000E-01   1.00800           0   0.00000     -0.301140E-02
      5373 MEMB     44       PMPE     C316     CTL3    -0.270000       12.0110           0   0.00000     -0.301140E-02
      5374 MEMB     44       PMPE     H16X     HAL3     0.900000E-01   1.00800           0   0.00000     -0.301140E-02
      5375 MEMB     44       PMPE     H16Y     HAL3     0.900000E-01   1.00800           0   0.00000     -0.301140E-02
      5376 MEMB     44       PMPE     H16Z     HAL3     0.900000E-01   1.00800           0   0.00000     -0.301140E-02
      5377 MEMB     45       PMPE     N        NH3L    -0.300000       14.0070           0   0.00000     -0.301140E-02
      5378 MEMB     45       PMPE     HN1      HCL      0.330000       1.00800           0   0.00000     -0.301140E-02
      5379 MEMB     45       PMPE     HN2      HCL      0.330000       1.00800           0   0.00000     -0.301140E-02
      5380 MEMB     45       PMPE     HN3      HCL      0.330000       1.00800           0   0.00000     -0.301140E-02
      5381 MEMB     45       PMPE     C12      CTL2     0.130000       12.0110           0   0.00000     -0.301140E-02
      5382 MEMB     45       PMPE     H12A     HAL2     0.900000E-01   1.00800           0   0.00000     -0.301140E-02
      5383 MEMB     45       PMPE     H12B     HAL2     0.900000E-01   1.00800           0   0.00000     -0.301140E-02
      5384 MEMB     45       PMPE     C11      CTL2    -0.800000E-01   12.0110           0   0.00000     -0.301140E-02
      5385 MEMB     45       PMPE     H11A     HAL2     0.900000E-01   1.00800           0   0.00000     -0.301140E-02
      5386 MEMB     45       PMPE     H11B     HAL2     0.900000E-01   1.00800           0   0.00000     -0.301140E-02
      5387 MEMB     45       PMPE     P        PL        1.50000       30.9740           0   0.00000     -0.301140E-02
      5388 MEMB     45       PMPE     O13      O2L     -0.780000       15.9994           0   0.00000     -0.301140E-02
      5389 MEMB     45       PMPE     O14      O2L     -0.780000       15.9994           0   0.00000     -0.301140E-02
      5390 MEMB     45       PMPE     O11      OSLP    -0.570000       15.9994           0   0.00000     -0.301140E-02
      5391 MEMB     45       PMPE     O12      OSLP    -0.570000       15.9994           0   0.00000     -0.301140E-02
      5392 MEMB     45       PMPE     C1       CTL2    -0.800000E-01   12.0110           0   0.00000     -0.301140E-02
      5393 MEMB     45       PMPE     HA       HAL2     0.900000E-01   1.00800           0   0.00000     -0.301140E-02
      5394 MEMB     45       PMPE     HB       HAL2     0.900000E-01   1.00800           0   0.00000     -0.301140E-02
      5395 MEMB     45       PMPE     C2       CTL1     0.170000       12.0110           0   0.00000     -0.301140E-02
      5396 MEMB     45       PMPE     HS       HAL1     0.900000E-01   1.00800           0   0.00000     -0.301140E-02
      5397 MEMB     45       PMPE     O21      OSL     -0.490000       15.9994           0   0.00000     -0.301140E-02
      5398 MEMB     45       PMPE     C21      CL       0.900000       12.0110           0   0.00000     -0.301140E-02
      5399 MEMB     45       PMPE     O22      OBL     -0.630000       15.9994           0   0.00000     -0.301140E-02
      5400 MEMB     45       PMPE     C22      CTL2    -0.220000       12.0110           0   0.00000     -0.301140E-02
      5401 MEMB     45       PMPE     H2R      HAL2     0.900000E-01   1.00800           0   0.00000     -0.301140E-02
      5402 MEMB     45       PMPE     H2S      HAL2     0.900000E-01   1.00800           0   0.00000     -0.301140E-02
      5403 MEMB     45       PMPE     C3       CTL2     0.800000E-01   12.0110           0   0.00000     -0.301140E-02
      5404 MEMB     45       PMPE     HX       HAL2     0.900000E-01   1.00800           0   0.00000     -0.301140E-02
      5405 MEMB     45       PMPE     HY       HAL2     0.900000E-01   1.00800           0   0.00000     -0.301140E-02
      5406 MEMB     45       PMPE     O31      OSL     -0.490000       15.9994           0   0.00000     -0.301140E-02
      5407 MEMB     45       PMPE     C31      CL       0.900000       12.0110           0   0.00000     -0.301140E-02
      5408 MEMB     45       PMPE     O32      OBL     -0.630000       15.9994           0   0.00000     -0.301140E-02
      5409 MEMB     45       PMPE     C32      CTL2    -0.220000       12.0110           0   0.00000     -0.301140E-02
      5410 MEMB     45       PMPE     H2X      HAL2     0.900000E-01   1.00800           0   0.00000     -0.301140E-02
      5411 MEMB     45       PMPE     H2Y      HAL2     0.900000E-01   1.00800           0   0.00000     -0.301140E-02
      5412 MEMB     45       PMPE     C23      CTL2    -0.180000       12.0110           0   0.00000     -0.301140E-02
      5413 MEMB     45       PMPE     H3R      HAL2     0.900000E-01   1.00800           0   0.00000     -0.301140E-02
      5414 MEMB     45       PMPE     H3S      HAL2     0.900000E-01   1.00800           0   0.00000     -0.301140E-02
      5415 MEMB     45       PMPE     C24      CTL2    -0.180000       12.0110           0   0.00000     -0.301140E-02
      5416 MEMB     45       PMPE     H4R      HAL2     0.900000E-01   1.00800           0   0.00000     -0.301140E-02
      5417 MEMB     45       PMPE     H4S      HAL2     0.900000E-01   1.00800           0   0.00000     -0.301140E-02
      5418 MEMB     45       PMPE     C25      CTL2    -0.180000       12.0110           0   0.00000     -0.301140E-02
      5419 MEMB     45       PMPE     H5R      HAL2     0.900000E-01   1.00800           0   0.00000     -0.301140E-02
      5420 MEMB     45       PMPE     H5S      HAL2     0.900000E-01   1.00800           0   0.00000     -0.301140E-02
      5421 MEMB     45       PMPE     C26      CTL2    -0.180000       12.0110           0   0.00000     -0.301140E-02
      5422 MEMB     45       PMPE     H6R      HAL2     0.900000E-01   1.00800           0   0.00000     -0.301140E-02
      5423 MEMB     45       PMPE     H6S      HAL2     0.900000E-01   1.00800           0   0.00000     -0.301140E-02
      5424 MEMB     45       PMPE     C27      CTL2    -0.180000       12.0110           0   0.00000     -0.301140E-02
      5425 MEMB     45       PMPE     H7R      HAL2     0.900000E-01   1.00800           0   0.00000     -0.301140E-02
      5426 MEMB     45       PMPE     H7S      HAL2     0.900000E-01   1.00800           0   0.00000     -0.301140E-02
      5427 MEMB     45       PMPE     C28      CTL2    -0.180000       12.0110           0   0.00000     -0.301140E-02
      5428 MEMB     45       PMPE     H8R      HAL2     0.900000E-01   1.00800           0   0.00000     -0.301140E-02
      5429 MEMB     45       PMPE     H8S      HAL2     0.900000E-01   1.00800           0   0.00000     -0.301140E-02
      5430 MEMB     45       PMPE     C29      CG3RC1  -0.900000E-01   12.0110           0   0.00000     -0.301140E-02
      5431 MEMB     45       PMPE     H9R      HGA1     0.900000E-01   1.00800           0   0.00000     -0.301140E-02
      5432 MEMB     45       PMPE     C217     CG3C31  -0.180000       12.0110           0   0.00000     -0.301140E-02
      5433 MEMB     45       PMPE     H17R     HGA2     0.900000E-01   1.00800           0   0.00000     -0.301140E-02
      5434 MEMB     45       PMPE     H17S     HGA2     0.900000E-01   1.00800           0   0.00000     -0.301140E-02
      5435 MEMB     45       PMPE     C210     CG3RC1  -0.900000E-01   12.0110           0   0.00000     -0.301140E-02
      5436 MEMB     45       PMPE     H10R     HGA1     0.900000E-01   1.00800           0   0.00000     -0.301140E-02
      5437 MEMB     45       PMPE     C211     CTL2    -0.180000       12.0110           0   0.00000     -0.301140E-02
      5438 MEMB     45       PMPE     H11R     HAL2     0.900000E-01   1.00800           0   0.00000     -0.301140E-02
      5439 MEMB     45       PMPE     H11S     HAL2     0.900000E-01   1.00800           0   0.00000     -0.301140E-02
      5440 MEMB     45       PMPE     C212     CTL2    -0.180000       12.0110           0   0.00000     -0.301140E-02
      5441 MEMB     45       PMPE     H12R     HAL2     0.900000E-01   1.00800           0   0.00000     -0.301140E-02
      5442 MEMB     45       PMPE     H12S     HAL2     0.900000E-01   1.00800           0   0.00000     -0.301140E-02
      5443 MEMB     45       PMPE     C213     CTL2    -0.180000       12.0110           0   0.00000     -0.301140E-02
      5444 MEMB     45       PMPE     H13R     HAL2     0.900000E-01   1.00800           0   0.00000     -0.301140E-02
      5445 MEMB     45       PMPE     H13S     HAL2     0.900000E-01   1.00800           0   0.00000     -0.301140E-02
      5446 MEMB     45       PMPE     C214     CTL2    -0.180000       12.0110           0   0.00000     -0.301140E-02
      5447 MEMB     45       PMPE     H14R     HAL2     0.900000E-01   1.00800           0   0.00000     -0.301140E-02
      5448 MEMB     45       PMPE     H14S     HAL2     0.900000E-01   1.00800           0   0.00000     -0.301140E-02
      5449 MEMB     45       PMPE     C215     CTL2    -0.180000       12.0110           0   0.00000     -0.301140E-02
      5450 MEMB     45       PMPE     H15R     HAL2     0.900000E-01   1.00800           0   0.00000     -0.301140E-02
      5451 MEMB     45       PMPE     H15S     HAL2     0.900000E-01   1.00800           0   0.00000     -0.301140E-02
      5452 MEMB     45       PMPE     C216     CTL3    -0.270000       12.0110           0   0.00000     -0.301140E-02
      5453 MEMB     45       PMPE     H16R     HAL3     0.900000E-01   1.00800           0   0.00000     -0.301140E-02
      5454 MEMB     45       PMPE     H16S     HAL3     0.900000E-01   1.00800           0   0.00000     -0.301140E-02
      5455 MEMB     45       PMPE     H16T     HAL3     0.900000E-01   1.00800           0   0.00000     -0.301140E-02
      5456 MEMB     45       PMPE     C33      CTL2    -0.180000       12.0110           0   0.00000     -0.301140E-02
      5457 MEMB     45       PMPE     H3X      HAL2     0.900000E-01   1.00800           0   0.00000     -0.301140E-02
      5458 MEMB     45       PMPE     H3Y      HAL2     0.900000E-01   1.00800           0   0.00000     -0.301140E-02
      5459 MEMB     45       PMPE     C34      CTL2    -0.180000       12.0110           0   0.00000     -0.301140E-02
      5460 MEMB     45       PMPE     H4X      HAL2     0.900000E-01   1.00800           0   0.00000     -0.301140E-02
      5461 MEMB     45       PMPE     H4Y      HAL2     0.900000E-01   1.00800           0   0.00000     -0.301140E-02
      5462 MEMB     45       PMPE     C35      CTL2    -0.180000       12.0110           0   0.00000     -0.301140E-02
      5463 MEMB     45       PMPE     H5X      HAL2     0.900000E-01   1.00800           0   0.00000     -0.301140E-02
      5464 MEMB     45       PMPE     H5Y      HAL2     0.900000E-01   1.00800           0   0.00000     -0.301140E-02
      5465 MEMB     45       PMPE     C36      CTL2    -0.180000       12.0110           0   0.00000     -0.301140E-02
      5466 MEMB     45       PMPE     H6X      HAL2     0.900000E-01   1.00800           0   0.00000     -0.301140E-02
      5467 MEMB     45       PMPE     H6Y      HAL2     0.900000E-01   1.00800           0   0.00000     -0.301140E-02
      5468 MEMB     45       PMPE     C37      CTL2    -0.180000       12.0110           0   0.00000     -0.301140E-02
      5469 MEMB     45       PMPE     H7X      HAL2     0.900000E-01   1.00800           0   0.00000     -0.301140E-02
      5470 MEMB     45       PMPE     H7Y      HAL2     0.900000E-01   1.00800           0   0.00000     -0.301140E-02
      5471 MEMB     45       PMPE     C38      CTL2    -0.180000       12.0110           0   0.00000     -0.301140E-02
      5472 MEMB     45       PMPE     H8X      HAL2     0.900000E-01   1.00800           0   0.00000     -0.301140E-02
      5473 MEMB     45       PMPE     H8Y      HAL2     0.900000E-01   1.00800           0   0.00000     -0.301140E-02
      5474 MEMB     45       PMPE     C39      CTL2    -0.180000       12.0110           0   0.00000     -0.301140E-02
      5475 MEMB     45       PMPE     H9X      HAL2     0.900000E-01   1.00800           0   0.00000     -0.301140E-02
      5476 MEMB     45       PMPE     H9Y      HAL2     0.900000E-01   1.00800           0   0.00000     -0.301140E-02
      5477 MEMB     45       PMPE     C310     CTL2    -0.180000       12.0110           0   0.00000     -0.301140E-02
      5478 MEMB     45       PMPE     H10X     HAL2     0.900000E-01   1.00800           0   0.00000     -0.301140E-02
      5479 MEMB     45       PMPE     H10Y     HAL2     0.900000E-01   1.00800           0   0.00000     -0.301140E-02
      5480 MEMB     45       PMPE     C311     CTL2    -0.180000       12.0110           0   0.00000     -0.301140E-02
      5481 MEMB     45       PMPE     H11X     HAL2     0.900000E-01   1.00800           0   0.00000     -0.301140E-02
      5482 MEMB     45       PMPE     H11Y     HAL2     0.900000E-01   1.00800           0   0.00000     -0.301140E-02
      5483 MEMB     45       PMPE     C312     CTL2    -0.180000       12.0110           0   0.00000     -0.301140E-02
      5484 MEMB     45       PMPE     H12X     HAL2     0.900000E-01   1.00800           0   0.00000     -0.301140E-02
      5485 MEMB     45       PMPE     H12Y     HAL2     0.900000E-01   1.00800           0   0.00000     -0.301140E-02
      5486 MEMB     45       PMPE     C313     CTL2    -0.180000       12.0110           0   0.00000     -0.301140E-02
      5487 MEMB     45       PMPE     H13X     HAL2     0.900000E-01   1.00800           0   0.00000     -0.301140E-02
      5488 MEMB     45       PMPE     H13Y     HAL2     0.900000E-01   1.00800           0   0.00000     -0.301140E-02
      5489 MEMB     45       PMPE     C314     CTL2    -0.180000       12.0110           0   0.00000     -0.301140E-02
      5490 MEMB     45       PMPE     H14X     HAL2     0.900000E-01   1.00800           0   0.00000     -0.301140E-02
      5491 MEMB     45       PMPE     H14Y     HAL2     0.900000E-01   1.00800           0   0.00000     -0.301140E-02
      5492 MEMB     45       PMPE     C315     CTL2    -0.180000       12.0110           0   0.00000     -0.301140E-02
      5493 MEMB     45       PMPE     H15X     HAL2     0.900000E-01   1.00800           0   0.00000     -0.301140E-02
      5494 MEMB     45       PMPE     H15Y     HAL2     0.900000E-01   1.00800           0   0.00000     -0.301140E-02
      5495 MEMB     45       PMPE     C316     CTL3    -0.270000       12.0110           0   0.00000     -0.301140E-02
      5496 MEMB     45       PMPE     H16X     HAL3     0.900000E-01   1.00800           0   0.00000     -0.301140E-02
      5497 MEMB     45       PMPE     H16Y     HAL3     0.900000E-01   1.00800           0   0.00000     -0.301140E-02
      5498 MEMB     45       PMPE     H16Z     HAL3     0.900000E-01   1.00800           0   0.00000     -0.301140E-02
      5499 MEMB     46       PMPE     N        NH3L    -0.300000       14.0070           0   0.00000     -0.301140E-02
      5500 MEMB     46       PMPE     HN1      HCL      0.330000       1.00800           0   0.00000     -0.301140E-02
      5501 MEMB     46       PMPE     HN2      HCL      0.330000       1.00800           0   0.00000     -0.301140E-02
      5502 MEMB     46       PMPE     HN3      HCL      0.330000       1.00800           0   0.00000     -0.301140E-02
      5503 MEMB     46       PMPE     C12      CTL2     0.130000       12.0110           0   0.00000     -0.301140E-02
      5504 MEMB     46       PMPE     H12A     HAL2     0.900000E-01   1.00800           0   0.00000     -0.301140E-02
      5505 MEMB     46       PMPE     H12B     HAL2     0.900000E-01   1.00800           0   0.00000     -0.301140E-02
      5506 MEMB     46       PMPE     C11      CTL2    -0.800000E-01   12.0110           0   0.00000     -0.301140E-02
      5507 MEMB     46       PMPE     H11A     HAL2     0.900000E-01   1.00800           0   0.00000     -0.301140E-02
      5508 MEMB     46       PMPE     H11B     HAL2     0.900000E-01   1.00800           0   0.00000     -0.301140E-02
      5509 MEMB     46       PMPE     P        PL        1.50000       30.9740           0   0.00000     -0.301140E-02
      5510 MEMB     46       PMPE     O13      O2L     -0.780000       15.9994           0   0.00000     -0.301140E-02
      5511 MEMB     46       PMPE     O14      O2L     -0.780000       15.9994           0   0.00000     -0.301140E-02
      5512 MEMB     46       PMPE     O11      OSLP    -0.570000       15.9994           0   0.00000     -0.301140E-02
      5513 MEMB     46       PMPE     O12      OSLP    -0.570000       15.9994           0   0.00000     -0.301140E-02
      5514 MEMB     46       PMPE     C1       CTL2    -0.800000E-01   12.0110           0   0.00000     -0.301140E-02
      5515 MEMB     46       PMPE     HA       HAL2     0.900000E-01   1.00800           0   0.00000     -0.301140E-02
      5516 MEMB     46       PMPE     HB       HAL2     0.900000E-01   1.00800           0   0.00000     -0.301140E-02
      5517 MEMB     46       PMPE     C2       CTL1     0.170000       12.0110           0   0.00000     -0.301140E-02
      5518 MEMB     46       PMPE     HS       HAL1     0.900000E-01   1.00800           0   0.00000     -0.301140E-02
      5519 MEMB     46       PMPE     O21      OSL     -0.490000       15.9994           0   0.00000     -0.301140E-02
      5520 MEMB     46       PMPE     C21      CL       0.900000       12.0110           0   0.00000     -0.301140E-02
      5521 MEMB     46       PMPE     O22      OBL     -0.630000       15.9994           0   0.00000     -0.301140E-02
      5522 MEMB     46       PMPE     C22      CTL2    -0.220000       12.0110           0   0.00000     -0.301140E-02
      5523 MEMB     46       PMPE     H2R      HAL2     0.900000E-01   1.00800           0   0.00000     -0.301140E-02
      5524 MEMB     46       PMPE     H2S      HAL2     0.900000E-01   1.00800           0   0.00000     -0.301140E-02
      5525 MEMB     46       PMPE     C3       CTL2     0.800000E-01   12.0110           0   0.00000     -0.301140E-02
      5526 MEMB     46       PMPE     HX       HAL2     0.900000E-01   1.00800           0   0.00000     -0.301140E-02
      5527 MEMB     46       PMPE     HY       HAL2     0.900000E-01   1.00800           0   0.00000     -0.301140E-02
      5528 MEMB     46       PMPE     O31      OSL     -0.490000       15.9994           0   0.00000     -0.301140E-02
      5529 MEMB     46       PMPE     C31      CL       0.900000       12.0110           0   0.00000     -0.301140E-02
      5530 MEMB     46       PMPE     O32      OBL     -0.630000       15.9994           0   0.00000     -0.301140E-02
      5531 MEMB     46       PMPE     C32      CTL2    -0.220000       12.0110           0   0.00000     -0.301140E-02
      5532 MEMB     46       PMPE     H2X      HAL2     0.900000E-01   1.00800           0   0.00000     -0.301140E-02
      5533 MEMB     46       PMPE     H2Y      HAL2     0.900000E-01   1.00800           0   0.00000     -0.301140E-02
      5534 MEMB     46       PMPE     C23      CTL2    -0.180000       12.0110           0   0.00000     -0.301140E-02
      5535 MEMB     46       PMPE     H3R      HAL2     0.900000E-01   1.00800           0   0.00000     -0.301140E-02
      5536 MEMB     46       PMPE     H3S      HAL2     0.900000E-01   1.00800           0   0.00000     -0.301140E-02
      5537 MEMB     46       PMPE     C24      CTL2    -0.180000       12.0110           0   0.00000     -0.301140E-02
      5538 MEMB     46       PMPE     H4R      HAL2     0.900000E-01   1.00800           0   0.00000     -0.301140E-02
      5539 MEMB     46       PMPE     H4S      HAL2     0.900000E-01   1.00800           0   0.00000     -0.301140E-02
      5540 MEMB     46       PMPE     C25      CTL2    -0.180000       12.0110           0   0.00000     -0.301140E-02
      5541 MEMB     46       PMPE     H5R      HAL2     0.900000E-01   1.00800           0   0.00000     -0.301140E-02
      5542 MEMB     46       PMPE     H5S      HAL2     0.900000E-01   1.00800           0   0.00000     -0.301140E-02
      5543 MEMB     46       PMPE     C26      CTL2    -0.180000       12.0110           0   0.00000     -0.301140E-02
      5544 MEMB     46       PMPE     H6R      HAL2     0.900000E-01   1.00800           0   0.00000     -0.301140E-02
      5545 MEMB     46       PMPE     H6S      HAL2     0.900000E-01   1.00800           0   0.00000     -0.301140E-02
      5546 MEMB     46       PMPE     C27      CTL2    -0.180000       12.0110           0   0.00000     -0.301140E-02
      5547 MEMB     46       PMPE     H7R      HAL2     0.900000E-01   1.00800           0   0.00000     -0.301140E-02
      5548 MEMB     46       PMPE     H7S      HAL2     0.900000E-01   1.00800           0   0.00000     -0.301140E-02
      5549 MEMB     46       PMPE     C28      CTL2    -0.180000       12.0110           0   0.00000     -0.301140E-02
      5550 MEMB     46       PMPE     H8R      HAL2     0.900000E-01   1.00800           0   0.00000     -0.301140E-02
      5551 MEMB     46       PMPE     H8S      HAL2     0.900000E-01   1.00800           0   0.00000     -0.301140E-02
      5552 MEMB     46       PMPE     C29      CG3RC1  -0.900000E-01   12.0110           0   0.00000     -0.301140E-02
      5553 MEMB     46       PMPE     H9R      HGA1     0.900000E-01   1.00800           0   0.00000     -0.301140E-02
      5554 MEMB     46       PMPE     C217     CG3C31  -0.180000       12.0110           0   0.00000     -0.301140E-02
      5555 MEMB     46       PMPE     H17R     HGA2     0.900000E-01   1.00800           0   0.00000     -0.301140E-02
      5556 MEMB     46       PMPE     H17S     HGA2     0.900000E-01   1.00800           0   0.00000     -0.301140E-02
      5557 MEMB     46       PMPE     C210     CG3RC1  -0.900000E-01   12.0110           0   0.00000     -0.301140E-02
      5558 MEMB     46       PMPE     H10R     HGA1     0.900000E-01   1.00800           0   0.00000     -0.301140E-02
      5559 MEMB     46       PMPE     C211     CTL2    -0.180000       12.0110           0   0.00000     -0.301140E-02
      5560 MEMB     46       PMPE     H11R     HAL2     0.900000E-01   1.00800           0   0.00000     -0.301140E-02
      5561 MEMB     46       PMPE     H11S     HAL2     0.900000E-01   1.00800           0   0.00000     -0.301140E-02
      5562 MEMB     46       PMPE     C212     CTL2    -0.180000       12.0110           0   0.00000     -0.301140E-02
      5563 MEMB     46       PMPE     H12R     HAL2     0.900000E-01   1.00800           0   0.00000     -0.301140E-02
      5564 MEMB     46       PMPE     H12S     HAL2     0.900000E-01   1.00800           0   0.00000     -0.301140E-02
      5565 MEMB     46       PMPE     C213     CTL2    -0.180000       12.0110           0   0.00000     -0.301140E-02
      5566 MEMB     46       PMPE     H13R     HAL2     0.900000E-01   1.00800           0   0.00000     -0.301140E-02
      5567 MEMB     46       PMPE     H13S     HAL2     0.900000E-01   1.00800           0   0.00000     -0.301140E-02
      5568 MEMB     46       PMPE     C214     CTL2    -0.180000       12.0110           0   0.00000     -0.301140E-02
      5569 MEMB     46       PMPE     H14R     HAL2     0.900000E-01   1.00800           0   0.00000     -0.301140E-02
      5570 MEMB     46       PMPE     H14S     HAL2     0.900000E-01   1.00800           0   0.00000     -0.301140E-02
      5571 MEMB     46       PMPE     C215     CTL2    -0.180000       12.0110           0   0.00000     -0.301140E-02
      5572 MEMB     46       PMPE     H15R     HAL2     0.900000E-01   1.00800           0   0.00000     -0.301140E-02
      5573 MEMB     46       PMPE     H15S     HAL2     0.900000E-01   1.00800           0   0.00000     -0.301140E-02
      5574 MEMB     46       PMPE     C216     CTL3    -0.270000       12.0110           0   0.00000     -0.301140E-02
      5575 MEMB     46       PMPE     H16R     HAL3     0.900000E-01   1.00800           0   0.00000     -0.301140E-02
      5576 MEMB     46       PMPE     H16S     HAL3     0.900000E-01   1.00800           0   0.00000     -0.301140E-02
      5577 MEMB     46       PMPE     H16T     HAL3     0.900000E-01   1.00800           0   0.00000     -0.301140E-02
      5578 MEMB     46       PMPE     C33      CTL2    -0.180000       12.0110           0   0.00000     -0.301140E-02
      5579 MEMB     46       PMPE     H3X      HAL2     0.900000E-01   1.00800           0   0.00000     -0.301140E-02
      5580 MEMB     46       PMPE     H3Y      HAL2     0.900000E-01   1.00800           0   0.00000     -0.301140E-02
      5581 MEMB     46       PMPE     C34      CTL2    -0.180000       12.0110           0   0.00000     -0.301140E-02
      5582 MEMB     46       PMPE     H4X      HAL2     0.900000E-01   1.00800           0   0.00000     -0.301140E-02
      5583 MEMB     46       PMPE     H4Y      HAL2     0.900000E-01   1.00800           0   0.00000     -0.301140E-02
      5584 MEMB     46       PMPE     C35      CTL2    -0.180000       12.0110           0   0.00000     -0.301140E-02
      5585 MEMB     46       PMPE     H5X      HAL2     0.900000E-01   1.00800           0   0.00000     -0.301140E-02
      5586 MEMB     46       PMPE     H5Y      HAL2     0.900000E-01   1.00800           0   0.00000     -0.301140E-02
      5587 MEMB     46       PMPE     C36      CTL2    -0.180000       12.0110           0   0.00000     -0.301140E-02
      5588 MEMB     46       PMPE     H6X      HAL2     0.900000E-01   1.00800           0   0.00000     -0.301140E-02
      5589 MEMB     46       PMPE     H6Y      HAL2     0.900000E-01   1.00800           0   0.00000     -0.301140E-02
      5590 MEMB     46       PMPE     C37      CTL2    -0.180000       12.0110           0   0.00000     -0.301140E-02
      5591 MEMB     46       PMPE     H7X      HAL2     0.900000E-01   1.00800           0   0.00000     -0.301140E-02
      5592 MEMB     46       PMPE     H7Y      HAL2     0.900000E-01   1.00800           0   0.00000     -0.301140E-02
      5593 MEMB     46       PMPE     C38      CTL2    -0.180000       12.0110           0   0.00000     -0.301140E-02
      5594 MEMB     46       PMPE     H8X      HAL2     0.900000E-01   1.00800           0   0.00000     -0.301140E-02
      5595 MEMB     46       PMPE     H8Y      HAL2     0.900000E-01   1.00800           0   0.00000     -0.301140E-02
      5596 MEMB     46       PMPE     C39      CTL2    -0.180000       12.0110           0   0.00000     -0.301140E-02
      5597 MEMB     46       PMPE     H9X      HAL2     0.900000E-01   1.00800           0   0.00000     -0.301140E-02
      5598 MEMB     46       PMPE     H9Y      HAL2     0.900000E-01   1.00800           0   0.00000     -0.301140E-02
      5599 MEMB     46       PMPE     C310     CTL2    -0.180000       12.0110           0   0.00000     -0.301140E-02
      5600 MEMB     46       PMPE     H10X     HAL2     0.900000E-01   1.00800           0   0.00000     -0.301140E-02
      5601 MEMB     46       PMPE     H10Y     HAL2     0.900000E-01   1.00800           0   0.00000     -0.301140E-02
      5602 MEMB     46       PMPE     C311     CTL2    -0.180000       12.0110           0   0.00000     -0.301140E-02
      5603 MEMB     46       PMPE     H11X     HAL2     0.900000E-01   1.00800           0   0.00000     -0.301140E-02
      5604 MEMB     46       PMPE     H11Y     HAL2     0.900000E-01   1.00800           0   0.00000     -0.301140E-02
      5605 MEMB     46       PMPE     C312     CTL2    -0.180000       12.0110           0   0.00000     -0.301140E-02
      5606 MEMB     46       PMPE     H12X     HAL2     0.900000E-01   1.00800           0   0.00000     -0.301140E-02
      5607 MEMB     46       PMPE     H12Y     HAL2     0.900000E-01   1.00800           0   0.00000     -0.301140E-02
      5608 MEMB     46       PMPE     C313     CTL2    -0.180000       12.0110           0   0.00000     -0.301140E-02
      5609 MEMB     46       PMPE     H13X     HAL2     0.900000E-01   1.00800           0   0.00000     -0.301140E-02
      5610 MEMB     46       PMPE     H13Y     HAL2     0.900000E-01   1.00800           0   0.00000     -0.301140E-02
      5611 MEMB     46       PMPE     C314     CTL2    -0.180000       12.0110           0   0.00000     -0.301140E-02
      5612 MEMB     46       PMPE     H14X     HAL2     0.900000E-01   1.00800           0   0.00000     -0.301140E-02
      5613 MEMB     46       PMPE     H14Y     HAL2     0.900000E-01   1.00800           0   0.00000     -0.301140E-02
      5614 MEMB     46       PMPE     C315     CTL2    -0.180000       12.0110           0   0.00000     -0.301140E-02
      5615 MEMB     46       PMPE     H15X     HAL2     0.900000E-01   1.00800           0   0.00000     -0.301140E-02
      5616 MEMB     46       PMPE     H15Y     HAL2     0.900000E-01   1.00800           0   0.00000     -0.301140E-02
      5617 MEMB     46       PMPE     C316     CTL3    -0.270000       12.0110           0   0.00000     -0.301140E-02
      5618 MEMB     46       PMPE     H16X     HAL3     0.900000E-01   1.00800           0   0.00000     -0.301140E-02
      5619 MEMB     46       PMPE     H16Y     HAL3     0.900000E-01   1.00800           0   0.00000     -0.301140E-02
      5620 MEMB     46       PMPE     H16Z     HAL3     0.900000E-01   1.00800           0   0.00000     -0.301140E-02
      5621 MEMB     47       PMPG     C13      CTL2     0.500000E-01   12.0110           0   0.00000     -0.301140E-02
      5622 MEMB     47       PMPG     H13A     HAL2     0.900000E-01   1.00800           0   0.00000     -0.301140E-02
      5623 MEMB     47       PMPG     H13B     HAL2     0.900000E-01   1.00800           0   0.00000     -0.301140E-02
      5624 MEMB     47       PMPG     OC3      OHL     -0.660000       15.9994           0   0.00000     -0.301140E-02
      5625 MEMB     47       PMPG     HO3      HOL      0.430000       1.00800           0   0.00000     -0.301140E-02
      5626 MEMB     47       PMPG     C12      CTL1     0.140000       12.0110           0   0.00000     -0.301140E-02
      5627 MEMB     47       PMPG     H12A     HAL1     0.900000E-01   1.00800           0   0.00000     -0.301140E-02
      5628 MEMB     47       PMPG     OC2      OHL     -0.660000       15.9994           0   0.00000     -0.301140E-02
      5629 MEMB     47       PMPG     HO2      HOL      0.430000       1.00800           0   0.00000     -0.301140E-02
      5630 MEMB     47       PMPG     C11      CTL2    -0.800000E-01   12.0110           0   0.00000     -0.301140E-02
      5631 MEMB     47       PMPG     H11A     HAL2     0.900000E-01   1.00800           0   0.00000     -0.301140E-02
      5632 MEMB     47       PMPG     H11B     HAL2     0.900000E-01   1.00800           0   0.00000     -0.301140E-02
      5633 MEMB     47       PMPG     P        PL        1.50000       30.9740           0   0.00000     -0.301140E-02
      5634 MEMB     47       PMPG     O13      O2L     -0.780000       15.9994           0   0.00000     -0.301140E-02
      5635 MEMB     47       PMPG     O14      O2L     -0.780000       15.9994           0   0.00000     -0.301140E-02
      5636 MEMB     47       PMPG     O11      OSLP    -0.570000       15.9994           0   0.00000     -0.301140E-02
      5637 MEMB     47       PMPG     O12      OSLP    -0.570000       15.9994           0   0.00000     -0.301140E-02
      5638 MEMB     47       PMPG     C1       CTL2    -0.800000E-01   12.0110           0   0.00000     -0.301140E-02
      5639 MEMB     47       PMPG     HA       HAL2     0.900000E-01   1.00800           0   0.00000     -0.301140E-02
      5640 MEMB     47       PMPG     HB       HAL2     0.900000E-01   1.00800           0   0.00000     -0.301140E-02
      5641 MEMB     47       PMPG     C2       CTL1     0.170000       12.0110           0   0.00000     -0.301140E-02
      5642 MEMB     47       PMPG     HS       HAL1     0.900000E-01   1.00800           0   0.00000     -0.301140E-02
      5643 MEMB     47       PMPG     O21      OSL     -0.490000       15.9994           0   0.00000     -0.301140E-02
      5644 MEMB     47       PMPG     C21      CL       0.900000       12.0110           0   0.00000     -0.301140E-02
      5645 MEMB     47       PMPG     O22      OBL     -0.630000       15.9994           0   0.00000     -0.301140E-02
      5646 MEMB     47       PMPG     C22      CTL2    -0.220000       12.0110           0   0.00000     -0.301140E-02
      5647 MEMB     47       PMPG     H2R      HAL2     0.900000E-01   1.00800           0   0.00000     -0.301140E-02
      5648 MEMB     47       PMPG     H2S      HAL2     0.900000E-01   1.00800           0   0.00000     -0.301140E-02
      5649 MEMB     47       PMPG     C3       CTL2     0.800000E-01   12.0110           0   0.00000     -0.301140E-02
      5650 MEMB     47       PMPG     HX       HAL2     0.900000E-01   1.00800           0   0.00000     -0.301140E-02
      5651 MEMB     47       PMPG     HY       HAL2     0.900000E-01   1.00800           0   0.00000     -0.301140E-02
      5652 MEMB     47       PMPG     O31      OSL     -0.490000       15.9994           0   0.00000     -0.301140E-02
      5653 MEMB     47       PMPG     C31      CL       0.900000       12.0110           0   0.00000     -0.301140E-02
      5654 MEMB     47       PMPG     O32      OBL     -0.630000       15.9994           0   0.00000     -0.301140E-02
      5655 MEMB     47       PMPG     C32      CTL2    -0.220000       12.0110           0   0.00000     -0.301140E-02
      5656 MEMB     47       PMPG     H2X      HAL2     0.900000E-01   1.00800           0   0.00000     -0.301140E-02
      5657 MEMB     47       PMPG     H2Y      HAL2     0.900000E-01   1.00800           0   0.00000     -0.301140E-02
      5658 MEMB     47       PMPG     C23      CTL2    -0.180000       12.0110           0   0.00000     -0.301140E-02
      5659 MEMB     47       PMPG     H3R      HAL2     0.900000E-01   1.00800           0   0.00000     -0.301140E-02
      5660 MEMB     47       PMPG     H3S      HAL2     0.900000E-01   1.00800           0   0.00000     -0.301140E-02
      5661 MEMB     47       PMPG     C24      CTL2    -0.180000       12.0110           0   0.00000     -0.301140E-02
      5662 MEMB     47       PMPG     H4R      HAL2     0.900000E-01   1.00800           0   0.00000     -0.301140E-02
      5663 MEMB     47       PMPG     H4S      HAL2     0.900000E-01   1.00800           0   0.00000     -0.301140E-02
      5664 MEMB     47       PMPG     C25      CTL2    -0.180000       12.0110           0   0.00000     -0.301140E-02
      5665 MEMB     47       PMPG     H5R      HAL2     0.900000E-01   1.00800           0   0.00000     -0.301140E-02
      5666 MEMB     47       PMPG     H5S      HAL2     0.900000E-01   1.00800           0   0.00000     -0.301140E-02
      5667 MEMB     47       PMPG     C26      CTL2    -0.180000       12.0110           0   0.00000     -0.301140E-02
      5668 MEMB     47       PMPG     H6R      HAL2     0.900000E-01   1.00800           0   0.00000     -0.301140E-02
      5669 MEMB     47       PMPG     H6S      HAL2     0.900000E-01   1.00800           0   0.00000     -0.301140E-02
      5670 MEMB     47       PMPG     C27      CTL2    -0.180000       12.0110           0   0.00000     -0.301140E-02
      5671 MEMB     47       PMPG     H7R      HAL2     0.900000E-01   1.00800           0   0.00000     -0.301140E-02
      5672 MEMB     47       PMPG     H7S      HAL2     0.900000E-01   1.00800           0   0.00000     -0.301140E-02
      5673 MEMB     47       PMPG     C28      CTL2    -0.180000       12.0110           0   0.00000     -0.301140E-02
      5674 MEMB     47       PMPG     H8R      HAL2     0.900000E-01   1.00800           0   0.00000     -0.301140E-02
      5675 MEMB     47       PMPG     H8S      HAL2     0.900000E-01   1.00800           0   0.00000     -0.301140E-02
      5676 MEMB     47       PMPG     C29      CG3RC1  -0.900000E-01   12.0110           0   0.00000     -0.301140E-02
      5677 MEMB     47       PMPG     H9R      HGA1     0.900000E-01   1.00800           0   0.00000     -0.301140E-02
      5678 MEMB     47       PMPG     C217     CG3C31  -0.180000       12.0110           0   0.00000     -0.301140E-02
      5679 MEMB     47       PMPG     H17R     HGA2     0.900000E-01   1.00800           0   0.00000     -0.301140E-02
      5680 MEMB     47       PMPG     H17S     HGA2     0.900000E-01   1.00800           0   0.00000     -0.301140E-02
      5681 MEMB     47       PMPG     C210     CG3RC1  -0.900000E-01   12.0110           0   0.00000     -0.301140E-02
      5682 MEMB     47       PMPG     H10R     HGA1     0.900000E-01   1.00800           0   0.00000     -0.301140E-02
      5683 MEMB     47       PMPG     C211     CTL2    -0.180000       12.0110           0   0.00000     -0.301140E-02
      5684 MEMB     47       PMPG     H11R     HAL2     0.900000E-01   1.00800           0   0.00000     -0.301140E-02
      5685 MEMB     47       PMPG     H11S     HAL2     0.900000E-01   1.00800           0   0.00000     -0.301140E-02
      5686 MEMB     47       PMPG     C212     CTL2    -0.180000       12.0110           0   0.00000     -0.301140E-02
      5687 MEMB     47       PMPG     H12R     HAL2     0.900000E-01   1.00800           0   0.00000     -0.301140E-02
      5688 MEMB     47       PMPG     H12S     HAL2     0.900000E-01   1.00800           0   0.00000     -0.301140E-02
      5689 MEMB     47       PMPG     C213     CTL2    -0.180000       12.0110           0   0.00000     -0.301140E-02
      5690 MEMB     47       PMPG     H13R     HAL2     0.900000E-01   1.00800           0   0.00000     -0.301140E-02
      5691 MEMB     47       PMPG     H13S     HAL2     0.900000E-01   1.00800           0   0.00000     -0.301140E-02
      5692 MEMB     47       PMPG     C214     CTL2    -0.180000       12.0110           0   0.00000     -0.301140E-02
      5693 MEMB     47       PMPG     H14R     HAL2     0.900000E-01   1.00800           0   0.00000     -0.301140E-02
      5694 MEMB     47       PMPG     H14S     HAL2     0.900000E-01   1.00800           0   0.00000     -0.301140E-02
      5695 MEMB     47       PMPG     C215     CTL2    -0.180000       12.0110           0   0.00000     -0.301140E-02
      5696 MEMB     47       PMPG     H15R     HAL2     0.900000E-01   1.00800           0   0.00000     -0.301140E-02
      5697 MEMB     47       PMPG     H15S     HAL2     0.900000E-01   1.00800           0   0.00000     -0.301140E-02
      5698 MEMB     47       PMPG     C216     CTL3    -0.270000       12.0110           0   0.00000     -0.301140E-02
      5699 MEMB     47       PMPG     H16R     HAL3     0.900000E-01   1.00800           0   0.00000     -0.301140E-02
      5700 MEMB     47       PMPG     H16S     HAL3     0.900000E-01   1.00800           0   0.00000     -0.301140E-02
      5701 MEMB     47       PMPG     H16T     HAL3     0.900000E-01   1.00800           0   0.00000     -0.301140E-02
      5702 MEMB     47       PMPG     C33      CTL2    -0.180000       12.0110           0   0.00000     -0.301140E-02
      5703 MEMB     47       PMPG     H3X      HAL2     0.900000E-01   1.00800           0   0.00000     -0.301140E-02
      5704 MEMB     47       PMPG     H3Y      HAL2     0.900000E-01   1.00800           0   0.00000     -0.301140E-02
      5705 MEMB     47       PMPG     C34      CTL2    -0.180000       12.0110           0   0.00000     -0.301140E-02
      5706 MEMB     47       PMPG     H4X      HAL2     0.900000E-01   1.00800           0   0.00000     -0.301140E-02
      5707 MEMB     47       PMPG     H4Y      HAL2     0.900000E-01   1.00800           0   0.00000     -0.301140E-02
      5708 MEMB     47       PMPG     C35      CTL2    -0.180000       12.0110           0   0.00000     -0.301140E-02
      5709 MEMB     47       PMPG     H5X      HAL2     0.900000E-01   1.00800           0   0.00000     -0.301140E-02
      5710 MEMB     47       PMPG     H5Y      HAL2     0.900000E-01   1.00800           0   0.00000     -0.301140E-02
      5711 MEMB     47       PMPG     C36      CTL2    -0.180000       12.0110           0   0.00000     -0.301140E-02
      5712 MEMB     47       PMPG     H6X      HAL2     0.900000E-01   1.00800           0   0.00000     -0.301140E-02
      5713 MEMB     47       PMPG     H6Y      HAL2     0.900000E-01   1.00800           0   0.00000     -0.301140E-02
      5714 MEMB     47       PMPG     C37      CTL2    -0.180000       12.0110           0   0.00000     -0.301140E-02
      5715 MEMB     47       PMPG     H7X      HAL2     0.900000E-01   1.00800           0   0.00000     -0.301140E-02
      5716 MEMB     47       PMPG     H7Y      HAL2     0.900000E-01   1.00800           0   0.00000     -0.301140E-02
      5717 MEMB     47       PMPG     C38      CTL2    -0.180000       12.0110           0   0.00000     -0.301140E-02
      5718 MEMB     47       PMPG     H8X      HAL2     0.900000E-01   1.00800           0   0.00000     -0.301140E-02
      5719 MEMB     47       PMPG     H8Y      HAL2     0.900000E-01   1.00800           0   0.00000     -0.301140E-02
      5720 MEMB     47       PMPG     C39      CTL2    -0.180000       12.0110           0   0.00000     -0.301140E-02
      5721 MEMB     47       PMPG     H9X      HAL2     0.900000E-01   1.00800           0   0.00000     -0.301140E-02
      5722 MEMB     47       PMPG     H9Y      HAL2     0.900000E-01   1.00800           0   0.00000     -0.301140E-02
      5723 MEMB     47       PMPG     C310     CTL2    -0.180000       12.0110           0   0.00000     -0.301140E-02
      5724 MEMB     47       PMPG     H10X     HAL2     0.900000E-01   1.00800           0   0.00000     -0.301140E-02
      5725 MEMB     47       PMPG     H10Y     HAL2     0.900000E-01   1.00800           0   0.00000     -0.301140E-02
      5726 MEMB     47       PMPG     C311     CTL2    -0.180000       12.0110           0   0.00000     -0.301140E-02
      5727 MEMB     47       PMPG     H11X     HAL2     0.900000E-01   1.00800           0   0.00000     -0.301140E-02
      5728 MEMB     47       PMPG     H11Y     HAL2     0.900000E-01   1.00800           0   0.00000     -0.301140E-02
      5729 MEMB     47       PMPG     C312     CTL2    -0.180000       12.0110           0   0.00000     -0.301140E-02
      5730 MEMB     47       PMPG     H12X     HAL2     0.900000E-01   1.00800           0   0.00000     -0.301140E-02
      5731 MEMB     47       PMPG     H12Y     HAL2     0.900000E-01   1.00800           0   0.00000     -0.301140E-02
      5732 MEMB     47       PMPG     C313     CTL2    -0.180000       12.0110           0   0.00000     -0.301140E-02
      5733 MEMB     47       PMPG     H13X     HAL2     0.900000E-01   1.00800           0   0.00000     -0.301140E-02
      5734 MEMB     47       PMPG     H13Y     HAL2     0.900000E-01   1.00800           0   0.00000     -0.301140E-02
      5735 MEMB     47       PMPG     C314     CTL2    -0.180000       12.0110           0   0.00000     -0.301140E-02
      5736 MEMB     47       PMPG     H14X     HAL2     0.900000E-01   1.00800           0   0.00000     -0.301140E-02
      5737 MEMB     47       PMPG     H14Y     HAL2     0.900000E-01   1.00800           0   0.00000     -0.301140E-02
      5738 MEMB     47       PMPG     C315     CTL2    -0.180000       12.0110           0   0.00000     -0.301140E-02
      5739 MEMB     47       PMPG     H15X     HAL2     0.900000E-01   1.00800           0   0.00000     -0.301140E-02
      5740 MEMB     47       PMPG     H15Y     HAL2     0.900000E-01   1.00800           0   0.00000     -0.301140E-02
      5741 MEMB     47       PMPG     C316     CTL3    -0.270000       12.0110           0   0.00000     -0.301140E-02
      5742 MEMB     47       PMPG     H16X     HAL3     0.900000E-01   1.00800           0   0.00000     -0.301140E-02
      5743 MEMB     47       PMPG     H16Y     HAL3     0.900000E-01   1.00800           0   0.00000     -0.301140E-02
      5744 MEMB     47       PMPG     H16Z     HAL3     0.900000E-01   1.00800           0   0.00000     -0.301140E-02
      5745 MEMB     48       PYPG     C13      CTL2     0.500000E-01   12.0110           0   0.00000     -0.301140E-02
      5746 MEMB     48       PYPG     H13A     HAL2     0.900000E-01   1.00800           0   0.00000     -0.301140E-02
      5747 MEMB     48       PYPG     H13B     HAL2     0.900000E-01   1.00800           0   0.00000     -0.301140E-02
      5748 MEMB     48       PYPG     OC3      OHL     -0.660000       15.9994           0   0.00000     -0.301140E-02
      5749 MEMB     48       PYPG     HO3      HOL      0.430000       1.00800           0   0.00000     -0.301140E-02
      5750 MEMB     48       PYPG     C12      CTL1     0.140000       12.0110           0   0.00000     -0.301140E-02
      5751 MEMB     48       PYPG     H12A     HAL1     0.900000E-01   1.00800           0   0.00000     -0.301140E-02
      5752 MEMB     48       PYPG     OC2      OHL     -0.660000       15.9994           0   0.00000     -0.301140E-02
      5753 MEMB     48       PYPG     HO2      HOL      0.430000       1.00800           0   0.00000     -0.301140E-02
      5754 MEMB     48       PYPG     C11      CTL2    -0.800000E-01   12.0110           0   0.00000     -0.301140E-02
      5755 MEMB     48       PYPG     H11A     HAL2     0.900000E-01   1.00800           0   0.00000     -0.301140E-02
      5756 MEMB     48       PYPG     H11B     HAL2     0.900000E-01   1.00800           0   0.00000     -0.301140E-02
      5757 MEMB     48       PYPG     P        PL        1.50000       30.9740           0   0.00000     -0.301140E-02
      5758 MEMB     48       PYPG     O13      O2L     -0.780000       15.9994           0   0.00000     -0.301140E-02
      5759 MEMB     48       PYPG     O14      O2L     -0.780000       15.9994           0   0.00000     -0.301140E-02
      5760 MEMB     48       PYPG     O11      OSLP    -0.570000       15.9994           0   0.00000     -0.301140E-02
      5761 MEMB     48       PYPG     O12      OSLP    -0.570000       15.9994           0   0.00000     -0.301140E-02
      5762 MEMB     48       PYPG     C1       CTL2    -0.800000E-01   12.0110           0   0.00000     -0.301140E-02
      5763 MEMB     48       PYPG     HA       HAL2     0.900000E-01   1.00800           0   0.00000     -0.301140E-02
      5764 MEMB     48       PYPG     HB       HAL2     0.900000E-01   1.00800           0   0.00000     -0.301140E-02
      5765 MEMB     48       PYPG     C2       CTL1     0.170000       12.0110           0   0.00000     -0.301140E-02
      5766 MEMB     48       PYPG     HS       HAL1     0.900000E-01   1.00800           0   0.00000     -0.301140E-02
      5767 MEMB     48       PYPG     O21      OSL     -0.490000       15.9994           0   0.00000     -0.301140E-02
      5768 MEMB     48       PYPG     C21      CL       0.900000       12.0110           0   0.00000     -0.301140E-02
      5769 MEMB     48       PYPG     O22      OBL     -0.630000       15.9994           0   0.00000     -0.301140E-02
      5770 MEMB     48       PYPG     C22      CTL2    -0.220000       12.0110           0   0.00000     -0.301140E-02
      5771 MEMB     48       PYPG     H2R      HAL2     0.900000E-01   1.00800           0   0.00000     -0.301140E-02
      5772 MEMB     48       PYPG     H2S      HAL2     0.900000E-01   1.00800           0   0.00000     -0.301140E-02
      5773 MEMB     48       PYPG     C3       CTL2     0.800000E-01   12.0110           0   0.00000     -0.301140E-02
      5774 MEMB     48       PYPG     HX       HAL2     0.900000E-01   1.00800           0   0.00000     -0.301140E-02
      5775 MEMB     48       PYPG     HY       HAL2     0.900000E-01   1.00800           0   0.00000     -0.301140E-02
      5776 MEMB     48       PYPG     O31      OSL     -0.490000       15.9994           0   0.00000     -0.301140E-02
      5777 MEMB     48       PYPG     C31      CL       0.900000       12.0110           0   0.00000     -0.301140E-02
      5778 MEMB     48       PYPG     O32      OBL     -0.630000       15.9994           0   0.00000     -0.301140E-02
      5779 MEMB     48       PYPG     C32      CTL2    -0.220000       12.0110           0   0.00000     -0.301140E-02
      5780 MEMB     48       PYPG     H2X      HAL2     0.900000E-01   1.00800           0   0.00000     -0.301140E-02
      5781 MEMB     48       PYPG     H2Y      HAL2     0.900000E-01   1.00800           0   0.00000     -0.301140E-02
      5782 MEMB     48       PYPG     C23      CTL2    -0.180000       12.0110           0   0.00000     -0.301140E-02
      5783 MEMB     48       PYPG     H3R      HAL2     0.900000E-01   1.00800           0   0.00000     -0.301140E-02
      5784 MEMB     48       PYPG     H3S      HAL2     0.900000E-01   1.00800           0   0.00000     -0.301140E-02
      5785 MEMB     48       PYPG     C24      CTL2    -0.180000       12.0110           0   0.00000     -0.301140E-02
      5786 MEMB     48       PYPG     H4R      HAL2     0.900000E-01   1.00800           0   0.00000     -0.301140E-02
      5787 MEMB     48       PYPG     H4S      HAL2     0.900000E-01   1.00800           0   0.00000     -0.301140E-02
      5788 MEMB     48       PYPG     C25      CTL2    -0.180000       12.0110           0   0.00000     -0.301140E-02
      5789 MEMB     48       PYPG     H5R      HAL2     0.900000E-01   1.00800           0   0.00000     -0.301140E-02
      5790 MEMB     48       PYPG     H5S      HAL2     0.900000E-01   1.00800           0   0.00000     -0.301140E-02
      5791 MEMB     48       PYPG     C26      CTL2    -0.180000       12.0110           0   0.00000     -0.301140E-02
      5792 MEMB     48       PYPG     H6R      HAL2     0.900000E-01   1.00800           0   0.00000     -0.301140E-02
      5793 MEMB     48       PYPG     H6S      HAL2     0.900000E-01   1.00800           0   0.00000     -0.301140E-02
      5794 MEMB     48       PYPG     C27      CTL2    -0.180000       12.0110           0   0.00000     -0.301140E-02
      5795 MEMB     48       PYPG     H7R      HAL2     0.900000E-01   1.00800           0   0.00000     -0.301140E-02
      5796 MEMB     48       PYPG     H7S      HAL2     0.900000E-01   1.00800           0   0.00000     -0.301140E-02
      5797 MEMB     48       PYPG     C28      CTL2    -0.180000       12.0110           0   0.00000     -0.301140E-02
      5798 MEMB     48       PYPG     H8R      HAL2     0.900000E-01   1.00800           0   0.00000     -0.301140E-02
      5799 MEMB     48       PYPG     H8S      HAL2     0.900000E-01   1.00800           0   0.00000     -0.301140E-02
      5800 MEMB     48       PYPG     C29      CEL1    -0.150000       12.0110           0   0.00000     -0.301140E-02
      5801 MEMB     48       PYPG     H9R      HEL1     0.150000       1.00800           0   0.00000     -0.301140E-02
      5802 MEMB     48       PYPG     C210     CEL1    -0.150000       12.0110           0   0.00000     -0.301140E-02
      5803 MEMB     48       PYPG     H10R     HEL1     0.150000       1.00800           0   0.00000     -0.301140E-02
      5804 MEMB     48       PYPG     C211     CTL2    -0.180000       12.0110           0   0.00000     -0.301140E-02
      5805 MEMB     48       PYPG     H11R     HAL2     0.900000E-01   1.00800           0   0.00000     -0.301140E-02
      5806 MEMB     48       PYPG     H11S     HAL2     0.900000E-01   1.00800           0   0.00000     -0.301140E-02
      5807 MEMB     48       PYPG     C212     CTL2    -0.180000       12.0110           0   0.00000     -0.301140E-02
      5808 MEMB     48       PYPG     H12R     HAL2     0.900000E-01   1.00800           0   0.00000     -0.301140E-02
      5809 MEMB     48       PYPG     H12S     HAL2     0.900000E-01   1.00800           0   0.00000     -0.301140E-02
      5810 MEMB     48       PYPG     C213     CTL2    -0.180000       12.0110           0   0.00000     -0.301140E-02
      5811 MEMB     48       PYPG     H13R     HAL2     0.900000E-01   1.00800           0   0.00000     -0.301140E-02
      5812 MEMB     48       PYPG     H13S     HAL2     0.900000E-01   1.00800           0   0.00000     -0.301140E-02
      5813 MEMB     48       PYPG     C214     CTL2    -0.180000       12.0110           0   0.00000     -0.301140E-02
      5814 MEMB     48       PYPG     H14R     HAL2     0.900000E-01   1.00800           0   0.00000     -0.301140E-02
      5815 MEMB     48       PYPG     H14S     HAL2     0.900000E-01   1.00800           0   0.00000     -0.301140E-02
      5816 MEMB     48       PYPG     C215     CTL2    -0.180000       12.0110           0   0.00000     -0.301140E-02
      5817 MEMB     48       PYPG     H15R     HAL2     0.900000E-01   1.00800           0   0.00000     -0.301140E-02
      5818 MEMB     48       PYPG     H15S     HAL2     0.900000E-01   1.00800           0   0.00000     -0.301140E-02
      5819 MEMB     48       PYPG     C216     CTL3    -0.270000       12.0110           0   0.00000     -0.301140E-02
      5820 MEMB     48       PYPG     H16R     HAL3     0.900000E-01   1.00800           0   0.00000     -0.301140E-02
      5821 MEMB     48       PYPG     H16S     HAL3     0.900000E-01   1.00800           0   0.00000     -0.301140E-02
      5822 MEMB     48       PYPG     H16T     HAL3     0.900000E-01   1.00800           0   0.00000     -0.301140E-02
      5823 MEMB     48       PYPG     C33      CTL2    -0.180000       12.0110           0   0.00000     -0.301140E-02
      5824 MEMB     48       PYPG     H3X      HAL2     0.900000E-01   1.00800           0   0.00000     -0.301140E-02
      5825 MEMB     48       PYPG     H3Y      HAL2     0.900000E-01   1.00800           0   0.00000     -0.301140E-02
      5826 MEMB     48       PYPG     C34      CTL2    -0.180000       12.0110           0   0.00000     -0.301140E-02
      5827 MEMB     48       PYPG     H4X      HAL2     0.900000E-01   1.00800           0   0.00000     -0.301140E-02
      5828 MEMB     48       PYPG     H4Y      HAL2     0.900000E-01   1.00800           0   0.00000     -0.301140E-02
      5829 MEMB     48       PYPG     C35      CTL2    -0.180000       12.0110           0   0.00000     -0.301140E-02
      5830 MEMB     48       PYPG     H5X      HAL2     0.900000E-01   1.00800           0   0.00000     -0.301140E-02
      5831 MEMB     48       PYPG     H5Y      HAL2     0.900000E-01   1.00800           0   0.00000     -0.301140E-02
      5832 MEMB     48       PYPG     C36      CTL2    -0.180000       12.0110           0   0.00000     -0.301140E-02
      5833 MEMB     48       PYPG     H6X      HAL2     0.900000E-01   1.00800           0   0.00000     -0.301140E-02
      5834 MEMB     48       PYPG     H6Y      HAL2     0.900000E-01   1.00800           0   0.00000     -0.301140E-02
      5835 MEMB     48       PYPG     C37      CTL2    -0.180000       12.0110           0   0.00000     -0.301140E-02
      5836 MEMB     48       PYPG     H7X      HAL2     0.900000E-01   1.00800           0   0.00000     -0.301140E-02
      5837 MEMB     48       PYPG     H7Y      HAL2     0.900000E-01   1.00800           0   0.00000     -0.301140E-02
      5838 MEMB     48       PYPG     C38      CTL2    -0.180000       12.0110           0   0.00000     -0.301140E-02
      5839 MEMB     48       PYPG     H8X      HAL2     0.900000E-01   1.00800           0   0.00000     -0.301140E-02
      5840 MEMB     48       PYPG     H8Y      HAL2     0.900000E-01   1.00800           0   0.00000     -0.301140E-02
      5841 MEMB     48       PYPG     C39      CTL2    -0.180000       12.0110           0   0.00000     -0.301140E-02
      5842 MEMB     48       PYPG     H9X      HAL2     0.900000E-01   1.00800           0   0.00000     -0.301140E-02
      5843 MEMB     48       PYPG     H9Y      HAL2     0.900000E-01   1.00800           0   0.00000     -0.301140E-02
      5844 MEMB     48       PYPG     C310     CTL2    -0.180000       12.0110           0   0.00000     -0.301140E-02
      5845 MEMB     48       PYPG     H10X     HAL2     0.900000E-01   1.00800           0   0.00000     -0.301140E-02
      5846 MEMB     48       PYPG     H10Y     HAL2     0.900000E-01   1.00800           0   0.00000     -0.301140E-02
      5847 MEMB     48       PYPG     C311     CTL2    -0.180000       12.0110           0   0.00000     -0.301140E-02
      5848 MEMB     48       PYPG     H11X     HAL2     0.900000E-01   1.00800           0   0.00000     -0.301140E-02
      5849 MEMB     48       PYPG     H11Y     HAL2     0.900000E-01   1.00800           0   0.00000     -0.301140E-02
      5850 MEMB     48       PYPG     C312     CTL2    -0.180000       12.0110           0   0.00000     -0.301140E-02
      5851 MEMB     48       PYPG     H12X     HAL2     0.900000E-01   1.00800           0   0.00000     -0.301140E-02
      5852 MEMB     48       PYPG     H12Y     HAL2     0.900000E-01   1.00800           0   0.00000     -0.301140E-02
      5853 MEMB     48       PYPG     C313     CTL2    -0.180000       12.0110           0   0.00000     -0.301140E-02
      5854 MEMB     48       PYPG     H13X     HAL2     0.900000E-01   1.00800           0   0.00000     -0.301140E-02
      5855 MEMB     48       PYPG     H13Y     HAL2     0.900000E-01   1.00800           0   0.00000     -0.301140E-02
      5856 MEMB     48       PYPG     C314     CTL2    -0.180000       12.0110           0   0.00000     -0.301140E-02
      5857 MEMB     48       PYPG     H14X     HAL2     0.900000E-01   1.00800           0   0.00000     -0.301140E-02
      5858 MEMB     48       PYPG     H14Y     HAL2     0.900000E-01   1.00800           0   0.00000     -0.301140E-02
      5859 MEMB     48       PYPG     C315     CTL2    -0.180000       12.0110           0   0.00000     -0.301140E-02
      5860 MEMB     48       PYPG     H15X     HAL2     0.900000E-01   1.00800           0   0.00000     -0.301140E-02
      5861 MEMB     48       PYPG     H15Y     HAL2     0.900000E-01   1.00800           0   0.00000     -0.301140E-02
      5862 MEMB     48       PYPG     C316     CTL3    -0.270000       12.0110           0   0.00000     -0.301140E-02
      5863 MEMB     48       PYPG     H16X     HAL3     0.900000E-01   1.00800           0   0.00000     -0.301140E-02
      5864 MEMB     48       PYPG     H16Y     HAL3     0.900000E-01   1.00800           0   0.00000     -0.301140E-02
      5865 MEMB     48       PYPG     H16Z     HAL3     0.900000E-01   1.00800           0   0.00000     -0.301140E-02
      5866 MEMB     49       PMPG     C13      CTL2     0.500000E-01   12.0110           0   0.00000     -0.301140E-02
      5867 MEMB     49       PMPG     H13A     HAL2     0.900000E-01   1.00800           0   0.00000     -0.301140E-02
      5868 MEMB     49       PMPG     H13B     HAL2     0.900000E-01   1.00800           0   0.00000     -0.301140E-02
      5869 MEMB     49       PMPG     OC3      OHL     -0.660000       15.9994           0   0.00000     -0.301140E-02
      5870 MEMB     49       PMPG     HO3      HOL      0.430000       1.00800           0   0.00000     -0.301140E-02
      5871 MEMB     49       PMPG     C12      CTL1     0.140000       12.0110           0   0.00000     -0.301140E-02
      5872 MEMB     49       PMPG     H12A     HAL1     0.900000E-01   1.00800           0   0.00000     -0.301140E-02
      5873 MEMB     49       PMPG     OC2      OHL     -0.660000       15.9994           0   0.00000     -0.301140E-02
      5874 MEMB     49       PMPG     HO2      HOL      0.430000       1.00800           0   0.00000     -0.301140E-02
      5875 MEMB     49       PMPG     C11      CTL2    -0.800000E-01   12.0110           0   0.00000     -0.301140E-02
      5876 MEMB     49       PMPG     H11A     HAL2     0.900000E-01   1.00800           0   0.00000     -0.301140E-02
      5877 MEMB     49       PMPG     H11B     HAL2     0.900000E-01   1.00800           0   0.00000     -0.301140E-02
      5878 MEMB     49       PMPG     P        PL        1.50000       30.9740           0   0.00000     -0.301140E-02
      5879 MEMB     49       PMPG     O13      O2L     -0.780000       15.9994           0   0.00000     -0.301140E-02
      5880 MEMB     49       PMPG     O14      O2L     -0.780000       15.9994           0   0.00000     -0.301140E-02
      5881 MEMB     49       PMPG     O11      OSLP    -0.570000       15.9994           0   0.00000     -0.301140E-02
      5882 MEMB     49       PMPG     O12      OSLP    -0.570000       15.9994           0   0.00000     -0.301140E-02
      5883 MEMB     49       PMPG     C1       CTL2    -0.800000E-01   12.0110           0   0.00000     -0.301140E-02
      5884 MEMB     49       PMPG     HA       HAL2     0.900000E-01   1.00800           0   0.00000     -0.301140E-02
      5885 MEMB     49       PMPG     HB       HAL2     0.900000E-01   1.00800           0   0.00000     -0.301140E-02
      5886 MEMB     49       PMPG     C2       CTL1     0.170000       12.0110           0   0.00000     -0.301140E-02
      5887 MEMB     49       PMPG     HS       HAL1     0.900000E-01   1.00800           0   0.00000     -0.301140E-02
      5888 MEMB     49       PMPG     O21      OSL     -0.490000       15.9994           0   0.00000     -0.301140E-02
      5889 MEMB     49       PMPG     C21      CL       0.900000       12.0110           0   0.00000     -0.301140E-02
      5890 MEMB     49       PMPG     O22      OBL     -0.630000       15.9994           0   0.00000     -0.301140E-02
      5891 MEMB     49       PMPG     C22      CTL2    -0.220000       12.0110           0   0.00000     -0.301140E-02
      5892 MEMB     49       PMPG     H2R      HAL2     0.900000E-01   1.00800           0   0.00000     -0.301140E-02
      5893 MEMB     49       PMPG     H2S      HAL2     0.900000E-01   1.00800           0   0.00000     -0.301140E-02
      5894 MEMB     49       PMPG     C3       CTL2     0.800000E-01   12.0110           0   0.00000     -0.301140E-02
      5895 MEMB     49       PMPG     HX       HAL2     0.900000E-01   1.00800           0   0.00000     -0.301140E-02
      5896 MEMB     49       PMPG     HY       HAL2     0.900000E-01   1.00800           0   0.00000     -0.301140E-02
      5897 MEMB     49       PMPG     O31      OSL     -0.490000       15.9994           0   0.00000     -0.301140E-02
      5898 MEMB     49       PMPG     C31      CL       0.900000       12.0110           0   0.00000     -0.301140E-02
      5899 MEMB     49       PMPG     O32      OBL     -0.630000       15.9994           0   0.00000     -0.301140E-02
      5900 MEMB     49       PMPG     C32      CTL2    -0.220000       12.0110           0   0.00000     -0.301140E-02
      5901 MEMB     49       PMPG     H2X      HAL2     0.900000E-01   1.00800           0   0.00000     -0.301140E-02
      5902 MEMB     49       PMPG     H2Y      HAL2     0.900000E-01   1.00800           0   0.00000     -0.301140E-02
      5903 MEMB     49       PMPG     C23      CTL2    -0.180000       12.0110           0   0.00000     -0.301140E-02
      5904 MEMB     49       PMPG     H3R      HAL2     0.900000E-01   1.00800           0   0.00000     -0.301140E-02
      5905 MEMB     49       PMPG     H3S      HAL2     0.900000E-01   1.00800           0   0.00000     -0.301140E-02
      5906 MEMB     49       PMPG     C24      CTL2    -0.180000       12.0110           0   0.00000     -0.301140E-02
      5907 MEMB     49       PMPG     H4R      HAL2     0.900000E-01   1.00800           0   0.00000     -0.301140E-02
      5908 MEMB     49       PMPG     H4S      HAL2     0.900000E-01   1.00800           0   0.00000     -0.301140E-02
      5909 MEMB     49       PMPG     C25      CTL2    -0.180000       12.0110           0   0.00000     -0.301140E-02
      5910 MEMB     49       PMPG     H5R      HAL2     0.900000E-01   1.00800           0   0.00000     -0.301140E-02
      5911 MEMB     49       PMPG     H5S      HAL2     0.900000E-01   1.00800           0   0.00000     -0.301140E-02
      5912 MEMB     49       PMPG     C26      CTL2    -0.180000       12.0110           0   0.00000     -0.301140E-02
      5913 MEMB     49       PMPG     H6R      HAL2     0.900000E-01   1.00800           0   0.00000     -0.301140E-02
      5914 MEMB     49       PMPG     H6S      HAL2     0.900000E-01   1.00800           0   0.00000     -0.301140E-02
      5915 MEMB     49       PMPG     C27      CTL2    -0.180000       12.0110           0   0.00000     -0.301140E-02
      5916 MEMB     49       PMPG     H7R      HAL2     0.900000E-01   1.00800           0   0.00000     -0.301140E-02
      5917 MEMB     49       PMPG     H7S      HAL2     0.900000E-01   1.00800           0   0.00000     -0.301140E-02
      5918 MEMB     49       PMPG     C28      CTL2    -0.180000       12.0110           0   0.00000     -0.301140E-02
      5919 MEMB     49       PMPG     H8R      HAL2     0.900000E-01   1.00800           0   0.00000     -0.301140E-02
      5920 MEMB     49       PMPG     H8S      HAL2     0.900000E-01   1.00800           0   0.00000     -0.301140E-02
      5921 MEMB     49       PMPG     C29      CG3RC1  -0.900000E-01   12.0110           0   0.00000     -0.301140E-02
      5922 MEMB     49       PMPG     H9R      HGA1     0.900000E-01   1.00800           0   0.00000     -0.301140E-02
      5923 MEMB     49       PMPG     C217     CG3C31  -0.180000       12.0110           0   0.00000     -0.301140E-02
      5924 MEMB     49       PMPG     H17R     HGA2     0.900000E-01   1.00800           0   0.00000     -0.301140E-02
      5925 MEMB     49       PMPG     H17S     HGA2     0.900000E-01   1.00800           0   0.00000     -0.301140E-02
      5926 MEMB     49       PMPG     C210     CG3RC1  -0.900000E-01   12.0110           0   0.00000     -0.301140E-02
      5927 MEMB     49       PMPG     H10R     HGA1     0.900000E-01   1.00800           0   0.00000     -0.301140E-02
      5928 MEMB     49       PMPG     C211     CTL2    -0.180000       12.0110           0   0.00000     -0.301140E-02
      5929 MEMB     49       PMPG     H11R     HAL2     0.900000E-01   1.00800           0   0.00000     -0.301140E-02
      5930 MEMB     49       PMPG     H11S     HAL2     0.900000E-01   1.00800           0   0.00000     -0.301140E-02
      5931 MEMB     49       PMPG     C212     CTL2    -0.180000       12.0110           0   0.00000     -0.301140E-02
      5932 MEMB     49       PMPG     H12R     HAL2     0.900000E-01   1.00800           0   0.00000     -0.301140E-02
      5933 MEMB     49       PMPG     H12S     HAL2     0.900000E-01   1.00800           0   0.00000     -0.301140E-02
      5934 MEMB     49       PMPG     C213     CTL2    -0.180000       12.0110           0   0.00000     -0.301140E-02
      5935 MEMB     49       PMPG     H13R     HAL2     0.900000E-01   1.00800           0   0.00000     -0.301140E-02
      5936 MEMB     49       PMPG     H13S     HAL2     0.900000E-01   1.00800           0   0.00000     -0.301140E-02
      5937 MEMB     49       PMPG     C214     CTL2    -0.180000       12.0110           0   0.00000     -0.301140E-02
      5938 MEMB     49       PMPG     H14R     HAL2     0.900000E-01   1.00800           0   0.00000     -0.301140E-02
      5939 MEMB     49       PMPG     H14S     HAL2     0.900000E-01   1.00800           0   0.00000     -0.301140E-02
      5940 MEMB     49       PMPG     C215     CTL2    -0.180000       12.0110           0   0.00000     -0.301140E-02
      5941 MEMB     49       PMPG     H15R     HAL2     0.900000E-01   1.00800           0   0.00000     -0.301140E-02
      5942 MEMB     49       PMPG     H15S     HAL2     0.900000E-01   1.00800           0   0.00000     -0.301140E-02
      5943 MEMB     49       PMPG     C216     CTL3    -0.270000       12.0110           0   0.00000     -0.301140E-02
      5944 MEMB     49       PMPG     H16R     HAL3     0.900000E-01   1.00800           0   0.00000     -0.301140E-02
      5945 MEMB     49       PMPG     H16S     HAL3     0.900000E-01   1.00800           0   0.00000     -0.301140E-02
      5946 MEMB     49       PMPG     H16T     HAL3     0.900000E-01   1.00800           0   0.00000     -0.301140E-02
      5947 MEMB     49       PMPG     C33      CTL2    -0.180000       12.0110           0   0.00000     -0.301140E-02
      5948 MEMB     49       PMPG     H3X      HAL2     0.900000E-01   1.00800           0   0.00000     -0.301140E-02
      5949 MEMB     49       PMPG     H3Y      HAL2     0.900000E-01   1.00800           0   0.00000     -0.301140E-02
      5950 MEMB     49       PMPG     C34      CTL2    -0.180000       12.0110           0   0.00000     -0.301140E-02
      5951 MEMB     49       PMPG     H4X      HAL2     0.900000E-01   1.00800           0   0.00000     -0.301140E-02
      5952 MEMB     49       PMPG     H4Y      HAL2     0.900000E-01   1.00800           0   0.00000     -0.301140E-02
      5953 MEMB     49       PMPG     C35      CTL2    -0.180000       12.0110           0   0.00000     -0.301140E-02
      5954 MEMB     49       PMPG     H5X      HAL2     0.900000E-01   1.00800           0   0.00000     -0.301140E-02
      5955 MEMB     49       PMPG     H5Y      HAL2     0.900000E-01   1.00800           0   0.00000     -0.301140E-02
      5956 MEMB     49       PMPG     C36      CTL2    -0.180000       12.0110           0   0.00000     -0.301140E-02
      5957 MEMB     49       PMPG     H6X      HAL2     0.900000E-01   1.00800           0   0.00000     -0.301140E-02
      5958 MEMB     49       PMPG     H6Y      HAL2     0.900000E-01   1.00800           0   0.00000     -0.301140E-02
      5959 MEMB     49       PMPG     C37      CTL2    -0.180000       12.0110           0   0.00000     -0.301140E-02
      5960 MEMB     49       PMPG     H7X      HAL2     0.900000E-01   1.00800           0   0.00000     -0.301140E-02
      5961 MEMB     49       PMPG     H7Y      HAL2     0.900000E-01   1.00800           0   0.00000     -0.301140E-02
      5962 MEMB     49       PMPG     C38      CTL2    -0.180000       12.0110           0   0.00000     -0.301140E-02
      5963 MEMB     49       PMPG     H8X      HAL2     0.900000E-01   1.00800           0   0.00000     -0.301140E-02
      5964 MEMB     49       PMPG     H8Y      HAL2     0.900000E-01   1.00800           0   0.00000     -0.301140E-02
      5965 MEMB     49       PMPG     C39      CTL2    -0.180000       12.0110           0   0.00000     -0.301140E-02
      5966 MEMB     49       PMPG     H9X      HAL2     0.900000E-01   1.00800           0   0.00000     -0.301140E-02
      5967 MEMB     49       PMPG     H9Y      HAL2     0.900000E-01   1.00800           0   0.00000     -0.301140E-02
      5968 MEMB     49       PMPG     C310     CTL2    -0.180000       12.0110           0   0.00000     -0.301140E-02
      5969 MEMB     49       PMPG     H10X     HAL2     0.900000E-01   1.00800           0   0.00000     -0.301140E-02
      5970 MEMB     49       PMPG     H10Y     HAL2     0.900000E-01   1.00800           0   0.00000     -0.301140E-02
      5971 MEMB     49       PMPG     C311     CTL2    -0.180000       12.0110           0   0.00000     -0.301140E-02
      5972 MEMB     49       PMPG     H11X     HAL2     0.900000E-01   1.00800           0   0.00000     -0.301140E-02
      5973 MEMB     49       PMPG     H11Y     HAL2     0.900000E-01   1.00800           0   0.00000     -0.301140E-02
      5974 MEMB     49       PMPG     C312     CTL2    -0.180000       12.0110           0   0.00000     -0.301140E-02
      5975 MEMB     49       PMPG     H12X     HAL2     0.900000E-01   1.00800           0   0.00000     -0.301140E-02
      5976 MEMB     49       PMPG     H12Y     HAL2     0.900000E-01   1.00800           0   0.00000     -0.301140E-02
      5977 MEMB     49       PMPG     C313     CTL2    -0.180000       12.0110           0   0.00000     -0.301140E-02
      5978 MEMB     49       PMPG     H13X     HAL2     0.900000E-01   1.00800           0   0.00000     -0.301140E-02
      5979 MEMB     49       PMPG     H13Y     HAL2     0.900000E-01   1.00800           0   0.00000     -0.301140E-02
      5980 MEMB     49       PMPG     C314     CTL2    -0.180000       12.0110           0   0.00000     -0.301140E-02
      5981 MEMB     49       PMPG     H14X     HAL2     0.900000E-01   1.00800           0   0.00000     -0.301140E-02
      5982 MEMB     49       PMPG     H14Y     HAL2     0.900000E-01   1.00800           0   0.00000     -0.301140E-02
      5983 MEMB     49       PMPG     C315     CTL2    -0.180000       12.0110           0   0.00000     -0.301140E-02
      5984 MEMB     49       PMPG     H15X     HAL2     0.900000E-01   1.00800           0   0.00000     -0.301140E-02
      5985 MEMB     49       PMPG     H15Y     HAL2     0.900000E-01   1.00800           0   0.00000     -0.301140E-02
      5986 MEMB     49       PMPG     C316     CTL3    -0.270000       12.0110           0   0.00000     -0.301140E-02
      5987 MEMB     49       PMPG     H16X     HAL3     0.900000E-01   1.00800           0   0.00000     -0.301140E-02
      5988 MEMB     49       PMPG     H16Y     HAL3     0.900000E-01   1.00800           0   0.00000     -0.301140E-02
      5989 MEMB     49       PMPG     H16Z     HAL3     0.900000E-01   1.00800           0   0.00000     -0.301140E-02
      5990 MEMB     50       PMPE     N        NH3L    -0.300000       14.0070           0   0.00000     -0.301140E-02
      5991 MEMB     50       PMPE     HN1      HCL      0.330000       1.00800           0   0.00000     -0.301140E-02
      5992 MEMB     50       PMPE     HN2      HCL      0.330000       1.00800           0   0.00000     -0.301140E-02
      5993 MEMB     50       PMPE     HN3      HCL      0.330000       1.00800           0   0.00000     -0.301140E-02
      5994 MEMB     50       PMPE     C12      CTL2     0.130000       12.0110           0   0.00000     -0.301140E-02
      5995 MEMB     50       PMPE     H12A     HAL2     0.900000E-01   1.00800           0   0.00000     -0.301140E-02
      5996 MEMB     50       PMPE     H12B     HAL2     0.900000E-01   1.00800           0   0.00000     -0.301140E-02
      5997 MEMB     50       PMPE     C11      CTL2    -0.800000E-01   12.0110           0   0.00000     -0.301140E-02
      5998 MEMB     50       PMPE     H11A     HAL2     0.900000E-01   1.00800           0   0.00000     -0.301140E-02
      5999 MEMB     50       PMPE     H11B     HAL2     0.900000E-01   1.00800           0   0.00000     -0.301140E-02
      6000 MEMB     50       PMPE     P        PL        1.50000       30.9740           0   0.00000     -0.301140E-02
      6001 MEMB     50       PMPE     O13      O2L     -0.780000       15.9994           0   0.00000     -0.301140E-02
      6002 MEMB     50       PMPE     O14      O2L     -0.780000       15.9994           0   0.00000     -0.301140E-02
      6003 MEMB     50       PMPE     O11      OSLP    -0.570000       15.9994           0   0.00000     -0.301140E-02
      6004 MEMB     50       PMPE     O12      OSLP    -0.570000       15.9994           0   0.00000     -0.301140E-02
      6005 MEMB     50       PMPE     C1       CTL2    -0.800000E-01   12.0110           0   0.00000     -0.301140E-02
      6006 MEMB     50       PMPE     HA       HAL2     0.900000E-01   1.00800           0   0.00000     -0.301140E-02
      6007 MEMB     50       PMPE     HB       HAL2     0.900000E-01   1.00800           0   0.00000     -0.301140E-02
      6008 MEMB     50       PMPE     C2       CTL1     0.170000       12.0110           0   0.00000     -0.301140E-02
      6009 MEMB     50       PMPE     HS       HAL1     0.900000E-01   1.00800           0   0.00000     -0.301140E-02
      6010 MEMB     50       PMPE     O21      OSL     -0.490000       15.9994           0   0.00000     -0.301140E-02
      6011 MEMB     50       PMPE     C21      CL       0.900000       12.0110           0   0.00000     -0.301140E-02
      6012 MEMB     50       PMPE     O22      OBL     -0.630000       15.9994           0   0.00000     -0.301140E-02
      6013 MEMB     50       PMPE     C22      CTL2    -0.220000       12.0110           0   0.00000     -0.301140E-02
      6014 MEMB     50       PMPE     H2R      HAL2     0.900000E-01   1.00800           0   0.00000     -0.301140E-02
      6015 MEMB     50       PMPE     H2S      HAL2     0.900000E-01   1.00800           0   0.00000     -0.301140E-02
      6016 MEMB     50       PMPE     C3       CTL2     0.800000E-01   12.0110           0   0.00000     -0.301140E-02
      6017 MEMB     50       PMPE     HX       HAL2     0.900000E-01   1.00800           0   0.00000     -0.301140E-02
      6018 MEMB     50       PMPE     HY       HAL2     0.900000E-01   1.00800           0   0.00000     -0.301140E-02
      6019 MEMB     50       PMPE     O31      OSL     -0.490000       15.9994           0   0.00000     -0.301140E-02
      6020 MEMB     50       PMPE     C31      CL       0.900000       12.0110           0   0.00000     -0.301140E-02
      6021 MEMB     50       PMPE     O32      OBL     -0.630000       15.9994           0   0.00000     -0.301140E-02
      6022 MEMB     50       PMPE     C32      CTL2    -0.220000       12.0110           0   0.00000     -0.301140E-02
      6023 MEMB     50       PMPE     H2X      HAL2     0.900000E-01   1.00800           0   0.00000     -0.301140E-02
      6024 MEMB     50       PMPE     H2Y      HAL2     0.900000E-01   1.00800           0   0.00000     -0.301140E-02
      6025 MEMB     50       PMPE     C23      CTL2    -0.180000       12.0110           0   0.00000     -0.301140E-02
      6026 MEMB     50       PMPE     H3R      HAL2     0.900000E-01   1.00800           0   0.00000     -0.301140E-02
      6027 MEMB     50       PMPE     H3S      HAL2     0.900000E-01   1.00800           0   0.00000     -0.301140E-02
      6028 MEMB     50       PMPE     C24      CTL2    -0.180000       12.0110           0   0.00000     -0.301140E-02
      6029 MEMB     50       PMPE     H4R      HAL2     0.900000E-01   1.00800           0   0.00000     -0.301140E-02
      6030 MEMB     50       PMPE     H4S      HAL2     0.900000E-01   1.00800           0   0.00000     -0.301140E-02
      6031 MEMB     50       PMPE     C25      CTL2    -0.180000       12.0110           0   0.00000     -0.301140E-02
      6032 MEMB     50       PMPE     H5R      HAL2     0.900000E-01   1.00800           0   0.00000     -0.301140E-02
      6033 MEMB     50       PMPE     H5S      HAL2     0.900000E-01   1.00800           0   0.00000     -0.301140E-02
      6034 MEMB     50       PMPE     C26      CTL2    -0.180000       12.0110           0   0.00000     -0.301140E-02
      6035 MEMB     50       PMPE     H6R      HAL2     0.900000E-01   1.00800           0   0.00000     -0.301140E-02
      6036 MEMB     50       PMPE     H6S      HAL2     0.900000E-01   1.00800           0   0.00000     -0.301140E-02
      6037 MEMB     50       PMPE     C27      CTL2    -0.180000       12.0110           0   0.00000     -0.301140E-02
      6038 MEMB     50       PMPE     H7R      HAL2     0.900000E-01   1.00800           0   0.00000     -0.301140E-02
      6039 MEMB     50       PMPE     H7S      HAL2     0.900000E-01   1.00800           0   0.00000     -0.301140E-02
      6040 MEMB     50       PMPE     C28      CTL2    -0.180000       12.0110           0   0.00000     -0.301140E-02
      6041 MEMB     50       PMPE     H8R      HAL2     0.900000E-01   1.00800           0   0.00000     -0.301140E-02
      6042 MEMB     50       PMPE     H8S      HAL2     0.900000E-01   1.00800           0   0.00000     -0.301140E-02
      6043 MEMB     50       PMPE     C29      CG3RC1  -0.900000E-01   12.0110           0   0.00000     -0.301140E-02
      6044 MEMB     50       PMPE     H9R      HGA1     0.900000E-01   1.00800           0   0.00000     -0.301140E-02
      6045 MEMB     50       PMPE     C217     CG3C31  -0.180000       12.0110           0   0.00000     -0.301140E-02
      6046 MEMB     50       PMPE     H17R     HGA2     0.900000E-01   1.00800           0   0.00000     -0.301140E-02
      6047 MEMB     50       PMPE     H17S     HGA2     0.900000E-01   1.00800           0   0.00000     -0.301140E-02
      6048 MEMB     50       PMPE     C210     CG3RC1  -0.900000E-01   12.0110           0   0.00000     -0.301140E-02
      6049 MEMB     50       PMPE     H10R     HGA1     0.900000E-01   1.00800           0   0.00000     -0.301140E-02
      6050 MEMB     50       PMPE     C211     CTL2    -0.180000       12.0110           0   0.00000     -0.301140E-02
      6051 MEMB     50       PMPE     H11R     HAL2     0.900000E-01   1.00800           0   0.00000     -0.301140E-02
      6052 MEMB     50       PMPE     H11S     HAL2     0.900000E-01   1.00800           0   0.00000     -0.301140E-02
      6053 MEMB     50       PMPE     C212     CTL2    -0.180000       12.0110           0   0.00000     -0.301140E-02
      6054 MEMB     50       PMPE     H12R     HAL2     0.900000E-01   1.00800           0   0.00000     -0.301140E-02
      6055 MEMB     50       PMPE     H12S     HAL2     0.900000E-01   1.00800           0   0.00000     -0.301140E-02
      6056 MEMB     50       PMPE     C213     CTL2    -0.180000       12.0110           0   0.00000     -0.301140E-02
      6057 MEMB     50       PMPE     H13R     HAL2     0.900000E-01   1.00800           0   0.00000     -0.301140E-02
      6058 MEMB     50       PMPE     H13S     HAL2     0.900000E-01   1.00800           0   0.00000     -0.301140E-02
      6059 MEMB     50       PMPE     C214     CTL2    -0.180000       12.0110           0   0.00000     -0.301140E-02
      6060 MEMB     50       PMPE     H14R     HAL2     0.900000E-01   1.00800           0   0.00000     -0.301140E-02
      6061 MEMB     50       PMPE     H14S     HAL2     0.900000E-01   1.00800           0   0.00000     -0.301140E-02
      6062 MEMB     50       PMPE     C215     CTL2    -0.180000       12.0110           0   0.00000     -0.301140E-02
      6063 MEMB     50       PMPE     H15R     HAL2     0.900000E-01   1.00800           0   0.00000     -0.301140E-02
      6064 MEMB     50       PMPE     H15S     HAL2     0.900000E-01   1.00800           0   0.00000     -0.301140E-02
      6065 MEMB     50       PMPE     C216     CTL3    -0.270000       12.0110           0   0.00000     -0.301140E-02
      6066 MEMB     50       PMPE     H16R     HAL3     0.900000E-01   1.00800           0   0.00000     -0.301140E-02
      6067 MEMB     50       PMPE     H16S     HAL3     0.900000E-01   1.00800           0   0.00000     -0.301140E-02
      6068 MEMB     50       PMPE     H16T     HAL3     0.900000E-01   1.00800           0   0.00000     -0.301140E-02
      6069 MEMB     50       PMPE     C33      CTL2    -0.180000       12.0110           0   0.00000     -0.301140E-02
      6070 MEMB     50       PMPE     H3X      HAL2     0.900000E-01   1.00800           0   0.00000     -0.301140E-02
      6071 MEMB     50       PMPE     H3Y      HAL2     0.900000E-01   1.00800           0   0.00000     -0.301140E-02
      6072 MEMB     50       PMPE     C34      CTL2    -0.180000       12.0110           0   0.00000     -0.301140E-02
      6073 MEMB     50       PMPE     H4X      HAL2     0.900000E-01   1.00800           0   0.00000     -0.301140E-02
      6074 MEMB     50       PMPE     H4Y      HAL2     0.900000E-01   1.00800           0   0.00000     -0.301140E-02
      6075 MEMB     50       PMPE     C35      CTL2    -0.180000       12.0110           0   0.00000     -0.301140E-02
      6076 MEMB     50       PMPE     H5X      HAL2     0.900000E-01   1.00800           0   0.00000     -0.301140E-02
      6077 MEMB     50       PMPE     H5Y      HAL2     0.900000E-01   1.00800           0   0.00000     -0.301140E-02
      6078 MEMB     50       PMPE     C36      CTL2    -0.180000       12.0110           0   0.00000     -0.301140E-02
      6079 MEMB     50       PMPE     H6X      HAL2     0.900000E-01   1.00800           0   0.00000     -0.301140E-02
      6080 MEMB     50       PMPE     H6Y      HAL2     0.900000E-01   1.00800           0   0.00000     -0.301140E-02
      6081 MEMB     50       PMPE     C37      CTL2    -0.180000       12.0110           0   0.00000     -0.301140E-02
      6082 MEMB     50       PMPE     H7X      HAL2     0.900000E-01   1.00800           0   0.00000     -0.301140E-02
      6083 MEMB     50       PMPE     H7Y      HAL2     0.900000E-01   1.00800           0   0.00000     -0.301140E-02
      6084 MEMB     50       PMPE     C38      CTL2    -0.180000       12.0110           0   0.00000     -0.301140E-02
      6085 MEMB     50       PMPE     H8X      HAL2     0.900000E-01   1.00800           0   0.00000     -0.301140E-02
      6086 MEMB     50       PMPE     H8Y      HAL2     0.900000E-01   1.00800           0   0.00000     -0.301140E-02
      6087 MEMB     50       PMPE     C39      CTL2    -0.180000       12.0110           0   0.00000     -0.301140E-02
      6088 MEMB     50       PMPE     H9X      HAL2     0.900000E-01   1.00800           0   0.00000     -0.301140E-02
      6089 MEMB     50       PMPE     H9Y      HAL2     0.900000E-01   1.00800           0   0.00000     -0.301140E-02
      6090 MEMB     50       PMPE     C310     CTL2    -0.180000       12.0110           0   0.00000     -0.301140E-02
      6091 MEMB     50       PMPE     H10X     HAL2     0.900000E-01   1.00800           0   0.00000     -0.301140E-02
      6092 MEMB     50       PMPE     H10Y     HAL2     0.900000E-01   1.00800           0   0.00000     -0.301140E-02
      6093 MEMB     50       PMPE     C311     CTL2    -0.180000       12.0110           0   0.00000     -0.301140E-02
      6094 MEMB     50       PMPE     H11X     HAL2     0.900000E-01   1.00800           0   0.00000     -0.301140E-02
      6095 MEMB     50       PMPE     H11Y     HAL2     0.900000E-01   1.00800           0   0.00000     -0.301140E-02
      6096 MEMB     50       PMPE     C312     CTL2    -0.180000       12.0110           0   0.00000     -0.301140E-02
      6097 MEMB     50       PMPE     H12X     HAL2     0.900000E-01   1.00800           0   0.00000     -0.301140E-02
      6098 MEMB     50       PMPE     H12Y     HAL2     0.900000E-01   1.00800           0   0.00000     -0.301140E-02
      6099 MEMB     50       PMPE     C313     CTL2    -0.180000       12.0110           0   0.00000     -0.301140E-02
      6100 MEMB     50       PMPE     H13X     HAL2     0.900000E-01   1.00800           0   0.00000     -0.301140E-02
      6101 MEMB     50       PMPE     H13Y     HAL2     0.900000E-01   1.00800           0   0.00000     -0.301140E-02
      6102 MEMB     50       PMPE     C314     CTL2    -0.180000       12.0110           0   0.00000     -0.301140E-02
      6103 MEMB     50       PMPE     H14X     HAL2     0.900000E-01   1.00800           0   0.00000     -0.301140E-02
      6104 MEMB     50       PMPE     H14Y     HAL2     0.900000E-01   1.00800           0   0.00000     -0.301140E-02
      6105 MEMB     50       PMPE     C315     CTL2    -0.180000       12.0110           0   0.00000     -0.301140E-02
      6106 MEMB     50       PMPE     H15X     HAL2     0.900000E-01   1.00800           0   0.00000     -0.301140E-02
      6107 MEMB     50       PMPE     H15Y     HAL2     0.900000E-01   1.00800           0   0.00000     -0.301140E-02
      6108 MEMB     50       PMPE     C316     CTL3    -0.270000       12.0110           0   0.00000     -0.301140E-02
      6109 MEMB     50       PMPE     H16X     HAL3     0.900000E-01   1.00800           0   0.00000     -0.301140E-02
      6110 MEMB     50       PMPE     H16Y     HAL3     0.900000E-01   1.00800           0   0.00000     -0.301140E-02
      6111 MEMB     50       PMPE     H16Z     HAL3     0.900000E-01   1.00800           0   0.00000     -0.301140E-02
      6112 MEMB     51       PMPE     N        NH3L    -0.300000       14.0070           0   0.00000     -0.301140E-02
      6113 MEMB     51       PMPE     HN1      HCL      0.330000       1.00800           0   0.00000     -0.301140E-02
      6114 MEMB     51       PMPE     HN2      HCL      0.330000       1.00800           0   0.00000     -0.301140E-02
      6115 MEMB     51       PMPE     HN3      HCL      0.330000       1.00800           0   0.00000     -0.301140E-02
      6116 MEMB     51       PMPE     C12      CTL2     0.130000       12.0110           0   0.00000     -0.301140E-02
      6117 MEMB     51       PMPE     H12A     HAL2     0.900000E-01   1.00800           0   0.00000     -0.301140E-02
      6118 MEMB     51       PMPE     H12B     HAL2     0.900000E-01   1.00800           0   0.00000     -0.301140E-02
      6119 MEMB     51       PMPE     C11      CTL2    -0.800000E-01   12.0110           0   0.00000     -0.301140E-02
      6120 MEMB     51       PMPE     H11A     HAL2     0.900000E-01   1.00800           0   0.00000     -0.301140E-02
      6121 MEMB     51       PMPE     H11B     HAL2     0.900000E-01   1.00800           0   0.00000     -0.301140E-02
      6122 MEMB     51       PMPE     P        PL        1.50000       30.9740           0   0.00000     -0.301140E-02
      6123 MEMB     51       PMPE     O13      O2L     -0.780000       15.9994           0   0.00000     -0.301140E-02
      6124 MEMB     51       PMPE     O14      O2L     -0.780000       15.9994           0   0.00000     -0.301140E-02
      6125 MEMB     51       PMPE     O11      OSLP    -0.570000       15.9994           0   0.00000     -0.301140E-02
      6126 MEMB     51       PMPE     O12      OSLP    -0.570000       15.9994           0   0.00000     -0.301140E-02
      6127 MEMB     51       PMPE     C1       CTL2    -0.800000E-01   12.0110           0   0.00000     -0.301140E-02
      6128 MEMB     51       PMPE     HA       HAL2     0.900000E-01   1.00800           0   0.00000     -0.301140E-02
      6129 MEMB     51       PMPE     HB       HAL2     0.900000E-01   1.00800           0   0.00000     -0.301140E-02
      6130 MEMB     51       PMPE     C2       CTL1     0.170000       12.0110           0   0.00000     -0.301140E-02
      6131 MEMB     51       PMPE     HS       HAL1     0.900000E-01   1.00800           0   0.00000     -0.301140E-02
      6132 MEMB     51       PMPE     O21      OSL     -0.490000       15.9994           0   0.00000     -0.301140E-02
      6133 MEMB     51       PMPE     C21      CL       0.900000       12.0110           0   0.00000     -0.301140E-02
      6134 MEMB     51       PMPE     O22      OBL     -0.630000       15.9994           0   0.00000     -0.301140E-02
      6135 MEMB     51       PMPE     C22      CTL2    -0.220000       12.0110           0   0.00000     -0.301140E-02
      6136 MEMB     51       PMPE     H2R      HAL2     0.900000E-01   1.00800           0   0.00000     -0.301140E-02
      6137 MEMB     51       PMPE     H2S      HAL2     0.900000E-01   1.00800           0   0.00000     -0.301140E-02
      6138 MEMB     51       PMPE     C3       CTL2     0.800000E-01   12.0110           0   0.00000     -0.301140E-02
      6139 MEMB     51       PMPE     HX       HAL2     0.900000E-01   1.00800           0   0.00000     -0.301140E-02
      6140 MEMB     51       PMPE     HY       HAL2     0.900000E-01   1.00800           0   0.00000     -0.301140E-02
      6141 MEMB     51       PMPE     O31      OSL     -0.490000       15.9994           0   0.00000     -0.301140E-02
      6142 MEMB     51       PMPE     C31      CL       0.900000       12.0110           0   0.00000     -0.301140E-02
      6143 MEMB     51       PMPE     O32      OBL     -0.630000       15.9994           0   0.00000     -0.301140E-02
      6144 MEMB     51       PMPE     C32      CTL2    -0.220000       12.0110           0   0.00000     -0.301140E-02
      6145 MEMB     51       PMPE     H2X      HAL2     0.900000E-01   1.00800           0   0.00000     -0.301140E-02
      6146 MEMB     51       PMPE     H2Y      HAL2     0.900000E-01   1.00800           0   0.00000     -0.301140E-02
      6147 MEMB     51       PMPE     C23      CTL2    -0.180000       12.0110           0   0.00000     -0.301140E-02
      6148 MEMB     51       PMPE     H3R      HAL2     0.900000E-01   1.00800           0   0.00000     -0.301140E-02
      6149 MEMB     51       PMPE     H3S      HAL2     0.900000E-01   1.00800           0   0.00000     -0.301140E-02
      6150 MEMB     51       PMPE     C24      CTL2    -0.180000       12.0110           0   0.00000     -0.301140E-02
      6151 MEMB     51       PMPE     H4R      HAL2     0.900000E-01   1.00800           0   0.00000     -0.301140E-02
      6152 MEMB     51       PMPE     H4S      HAL2     0.900000E-01   1.00800           0   0.00000     -0.301140E-02
      6153 MEMB     51       PMPE     C25      CTL2    -0.180000       12.0110           0   0.00000     -0.301140E-02
      6154 MEMB     51       PMPE     H5R      HAL2     0.900000E-01   1.00800           0   0.00000     -0.301140E-02
      6155 MEMB     51       PMPE     H5S      HAL2     0.900000E-01   1.00800           0   0.00000     -0.301140E-02
      6156 MEMB     51       PMPE     C26      CTL2    -0.180000       12.0110           0   0.00000     -0.301140E-02
      6157 MEMB     51       PMPE     H6R      HAL2     0.900000E-01   1.00800           0   0.00000     -0.301140E-02
      6158 MEMB     51       PMPE     H6S      HAL2     0.900000E-01   1.00800           0   0.00000     -0.301140E-02
      6159 MEMB     51       PMPE     C27      CTL2    -0.180000       12.0110           0   0.00000     -0.301140E-02
      6160 MEMB     51       PMPE     H7R      HAL2     0.900000E-01   1.00800           0   0.00000     -0.301140E-02
      6161 MEMB     51       PMPE     H7S      HAL2     0.900000E-01   1.00800           0   0.00000     -0.301140E-02
      6162 MEMB     51       PMPE     C28      CTL2    -0.180000       12.0110           0   0.00000     -0.301140E-02
      6163 MEMB     51       PMPE     H8R      HAL2     0.900000E-01   1.00800           0   0.00000     -0.301140E-02
      6164 MEMB     51       PMPE     H8S      HAL2     0.900000E-01   1.00800           0   0.00000     -0.301140E-02
      6165 MEMB     51       PMPE     C29      CG3RC1  -0.900000E-01   12.0110           0   0.00000     -0.301140E-02
      6166 MEMB     51       PMPE     H9R      HGA1     0.900000E-01   1.00800           0   0.00000     -0.301140E-02
      6167 MEMB     51       PMPE     C217     CG3C31  -0.180000       12.0110           0   0.00000     -0.301140E-02
      6168 MEMB     51       PMPE     H17R     HGA2     0.900000E-01   1.00800           0   0.00000     -0.301140E-02
      6169 MEMB     51       PMPE     H17S     HGA2     0.900000E-01   1.00800           0   0.00000     -0.301140E-02
      6170 MEMB     51       PMPE     C210     CG3RC1  -0.900000E-01   12.0110           0   0.00000     -0.301140E-02
      6171 MEMB     51       PMPE     H10R     HGA1     0.900000E-01   1.00800           0   0.00000     -0.301140E-02
      6172 MEMB     51       PMPE     C211     CTL2    -0.180000       12.0110           0   0.00000     -0.301140E-02
      6173 MEMB     51       PMPE     H11R     HAL2     0.900000E-01   1.00800           0   0.00000     -0.301140E-02
      6174 MEMB     51       PMPE     H11S     HAL2     0.900000E-01   1.00800           0   0.00000     -0.301140E-02
      6175 MEMB     51       PMPE     C212     CTL2    -0.180000       12.0110           0   0.00000     -0.301140E-02
      6176 MEMB     51       PMPE     H12R     HAL2     0.900000E-01   1.00800           0   0.00000     -0.301140E-02
      6177 MEMB     51       PMPE     H12S     HAL2     0.900000E-01   1.00800           0   0.00000     -0.301140E-02
      6178 MEMB     51       PMPE     C213     CTL2    -0.180000       12.0110           0   0.00000     -0.301140E-02
      6179 MEMB     51       PMPE     H13R     HAL2     0.900000E-01   1.00800           0   0.00000     -0.301140E-02
      6180 MEMB     51       PMPE     H13S     HAL2     0.900000E-01   1.00800           0   0.00000     -0.301140E-02
      6181 MEMB     51       PMPE     C214     CTL2    -0.180000       12.0110           0   0.00000     -0.301140E-02
      6182 MEMB     51       PMPE     H14R     HAL2     0.900000E-01   1.00800           0   0.00000     -0.301140E-02
      6183 MEMB     51       PMPE     H14S     HAL2     0.900000E-01   1.00800           0   0.00000     -0.301140E-02
      6184 MEMB     51       PMPE     C215     CTL2    -0.180000       12.0110           0   0.00000     -0.301140E-02
      6185 MEMB     51       PMPE     H15R     HAL2     0.900000E-01   1.00800           0   0.00000     -0.301140E-02
      6186 MEMB     51       PMPE     H15S     HAL2     0.900000E-01   1.00800           0   0.00000     -0.301140E-02
      6187 MEMB     51       PMPE     C216     CTL3    -0.270000       12.0110           0   0.00000     -0.301140E-02
      6188 MEMB     51       PMPE     H16R     HAL3     0.900000E-01   1.00800           0   0.00000     -0.301140E-02
      6189 MEMB     51       PMPE     H16S     HAL3     0.900000E-01   1.00800           0   0.00000     -0.301140E-02
      6190 MEMB     51       PMPE     H16T     HAL3     0.900000E-01   1.00800           0   0.00000     -0.301140E-02
      6191 MEMB     51       PMPE     C33      CTL2    -0.180000       12.0110           0   0.00000     -0.301140E-02
      6192 MEMB     51       PMPE     H3X      HAL2     0.900000E-01   1.00800           0   0.00000     -0.301140E-02
      6193 MEMB     51       PMPE     H3Y      HAL2     0.900000E-01   1.00800           0   0.00000     -0.301140E-02
      6194 MEMB     51       PMPE     C34      CTL2    -0.180000       12.0110           0   0.00000     -0.301140E-02
      6195 MEMB     51       PMPE     H4X      HAL2     0.900000E-01   1.00800           0   0.00000     -0.301140E-02
      6196 MEMB     51       PMPE     H4Y      HAL2     0.900000E-01   1.00800           0   0.00000     -0.301140E-02
      6197 MEMB     51       PMPE     C35      CTL2    -0.180000       12.0110           0   0.00000     -0.301140E-02
      6198 MEMB     51       PMPE     H5X      HAL2     0.900000E-01   1.00800           0   0.00000     -0.301140E-02
      6199 MEMB     51       PMPE     H5Y      HAL2     0.900000E-01   1.00800           0   0.00000     -0.301140E-02
      6200 MEMB     51       PMPE     C36      CTL2    -0.180000       12.0110           0   0.00000     -0.301140E-02
      6201 MEMB     51       PMPE     H6X      HAL2     0.900000E-01   1.00800           0   0.00000     -0.301140E-02
      6202 MEMB     51       PMPE     H6Y      HAL2     0.900000E-01   1.00800           0   0.00000     -0.301140E-02
      6203 MEMB     51       PMPE     C37      CTL2    -0.180000       12.0110           0   0.00000     -0.301140E-02
      6204 MEMB     51       PMPE     H7X      HAL2     0.900000E-01   1.00800           0   0.00000     -0.301140E-02
      6205 MEMB     51       PMPE     H7Y      HAL2     0.900000E-01   1.00800           0   0.00000     -0.301140E-02
      6206 MEMB     51       PMPE     C38      CTL2    -0.180000       12.0110           0   0.00000     -0.301140E-02
      6207 MEMB     51       PMPE     H8X      HAL2     0.900000E-01   1.00800           0   0.00000     -0.301140E-02
      6208 MEMB     51       PMPE     H8Y      HAL2     0.900000E-01   1.00800           0   0.00000     -0.301140E-02
      6209 MEMB     51       PMPE     C39      CTL2    -0.180000       12.0110           0   0.00000     -0.301140E-02
      6210 MEMB     51       PMPE     H9X      HAL2     0.900000E-01   1.00800           0   0.00000     -0.301140E-02
      6211 MEMB     51       PMPE     H9Y      HAL2     0.900000E-01   1.00800           0   0.00000     -0.301140E-02
      6212 MEMB     51       PMPE     C310     CTL2    -0.180000       12.0110           0   0.00000     -0.301140E-02
      6213 MEMB     51       PMPE     H10X     HAL2     0.900000E-01   1.00800           0   0.00000     -0.301140E-02
      6214 MEMB     51       PMPE     H10Y     HAL2     0.900000E-01   1.00800           0   0.00000     -0.301140E-02
      6215 MEMB     51       PMPE     C311     CTL2    -0.180000       12.0110           0   0.00000     -0.301140E-02
      6216 MEMB     51       PMPE     H11X     HAL2     0.900000E-01   1.00800           0   0.00000     -0.301140E-02
      6217 MEMB     51       PMPE     H11Y     HAL2     0.900000E-01   1.00800           0   0.00000     -0.301140E-02
      6218 MEMB     51       PMPE     C312     CTL2    -0.180000       12.0110           0   0.00000     -0.301140E-02
      6219 MEMB     51       PMPE     H12X     HAL2     0.900000E-01   1.00800           0   0.00000     -0.301140E-02
      6220 MEMB     51       PMPE     H12Y     HAL2     0.900000E-01   1.00800           0   0.00000     -0.301140E-02
      6221 MEMB     51       PMPE     C313     CTL2    -0.180000       12.0110           0   0.00000     -0.301140E-02
      6222 MEMB     51       PMPE     H13X     HAL2     0.900000E-01   1.00800           0   0.00000     -0.301140E-02
      6223 MEMB     51       PMPE     H13Y     HAL2     0.900000E-01   1.00800           0   0.00000     -0.301140E-02
      6224 MEMB     51       PMPE     C314     CTL2    -0.180000       12.0110           0   0.00000     -0.301140E-02
      6225 MEMB     51       PMPE     H14X     HAL2     0.900000E-01   1.00800           0   0.00000     -0.301140E-02
      6226 MEMB     51       PMPE     H14Y     HAL2     0.900000E-01   1.00800           0   0.00000     -0.301140E-02
      6227 MEMB     51       PMPE     C315     CTL2    -0.180000       12.0110           0   0.00000     -0.301140E-02
      6228 MEMB     51       PMPE     H15X     HAL2     0.900000E-01   1.00800           0   0.00000     -0.301140E-02
      6229 MEMB     51       PMPE     H15Y     HAL2     0.900000E-01   1.00800           0   0.00000     -0.301140E-02
      6230 MEMB     51       PMPE     C316     CTL3    -0.270000       12.0110           0   0.00000     -0.301140E-02
      6231 MEMB     51       PMPE     H16X     HAL3     0.900000E-01   1.00800           0   0.00000     -0.301140E-02
      6232 MEMB     51       PMPE     H16Y     HAL3     0.900000E-01   1.00800           0   0.00000     -0.301140E-02
      6233 MEMB     51       PMPE     H16Z     HAL3     0.900000E-01   1.00800           0   0.00000     -0.301140E-02
      6234 MEMB     52       PMPE     N        NH3L    -0.300000       14.0070           0   0.00000     -0.301140E-02
      6235 MEMB     52       PMPE     HN1      HCL      0.330000       1.00800           0   0.00000     -0.301140E-02
      6236 MEMB     52       PMPE     HN2      HCL      0.330000       1.00800           0   0.00000     -0.301140E-02
      6237 MEMB     52       PMPE     HN3      HCL      0.330000       1.00800           0   0.00000     -0.301140E-02
      6238 MEMB     52       PMPE     C12      CTL2     0.130000       12.0110           0   0.00000     -0.301140E-02
      6239 MEMB     52       PMPE     H12A     HAL2     0.900000E-01   1.00800           0   0.00000     -0.301140E-02
      6240 MEMB     52       PMPE     H12B     HAL2     0.900000E-01   1.00800           0   0.00000     -0.301140E-02
      6241 MEMB     52       PMPE     C11      CTL2    -0.800000E-01   12.0110           0   0.00000     -0.301140E-02
      6242 MEMB     52       PMPE     H11A     HAL2     0.900000E-01   1.00800           0   0.00000     -0.301140E-02
      6243 MEMB     52       PMPE     H11B     HAL2     0.900000E-01   1.00800           0   0.00000     -0.301140E-02
      6244 MEMB     52       PMPE     P        PL        1.50000       30.9740           0   0.00000     -0.301140E-02
      6245 MEMB     52       PMPE     O13      O2L     -0.780000       15.9994           0   0.00000     -0.301140E-02
      6246 MEMB     52       PMPE     O14      O2L     -0.780000       15.9994           0   0.00000     -0.301140E-02
      6247 MEMB     52       PMPE     O11      OSLP    -0.570000       15.9994           0   0.00000     -0.301140E-02
      6248 MEMB     52       PMPE     O12      OSLP    -0.570000       15.9994           0   0.00000     -0.301140E-02
      6249 MEMB     52       PMPE     C1       CTL2    -0.800000E-01   12.0110           0   0.00000     -0.301140E-02
      6250 MEMB     52       PMPE     HA       HAL2     0.900000E-01   1.00800           0   0.00000     -0.301140E-02
      6251 MEMB     52       PMPE     HB       HAL2     0.900000E-01   1.00800           0   0.00000     -0.301140E-02
      6252 MEMB     52       PMPE     C2       CTL1     0.170000       12.0110           0   0.00000     -0.301140E-02
      6253 MEMB     52       PMPE     HS       HAL1     0.900000E-01   1.00800           0   0.00000     -0.301140E-02
      6254 MEMB     52       PMPE     O21      OSL     -0.490000       15.9994           0   0.00000     -0.301140E-02
      6255 MEMB     52       PMPE     C21      CL       0.900000       12.0110           0   0.00000     -0.301140E-02
      6256 MEMB     52       PMPE     O22      OBL     -0.630000       15.9994           0   0.00000     -0.301140E-02
      6257 MEMB     52       PMPE     C22      CTL2    -0.220000       12.0110           0   0.00000     -0.301140E-02
      6258 MEMB     52       PMPE     H2R      HAL2     0.900000E-01   1.00800           0   0.00000     -0.301140E-02
      6259 MEMB     52       PMPE     H2S      HAL2     0.900000E-01   1.00800           0   0.00000     -0.301140E-02
      6260 MEMB     52       PMPE     C3       CTL2     0.800000E-01   12.0110           0   0.00000     -0.301140E-02
      6261 MEMB     52       PMPE     HX       HAL2     0.900000E-01   1.00800           0   0.00000     -0.301140E-02
      6262 MEMB     52       PMPE     HY       HAL2     0.900000E-01   1.00800           0   0.00000     -0.301140E-02
      6263 MEMB     52       PMPE     O31      OSL     -0.490000       15.9994           0   0.00000     -0.301140E-02
      6264 MEMB     52       PMPE     C31      CL       0.900000       12.0110           0   0.00000     -0.301140E-02
      6265 MEMB     52       PMPE     O32      OBL     -0.630000       15.9994           0   0.00000     -0.301140E-02
      6266 MEMB     52       PMPE     C32      CTL2    -0.220000       12.0110           0   0.00000     -0.301140E-02
      6267 MEMB     52       PMPE     H2X      HAL2     0.900000E-01   1.00800           0   0.00000     -0.301140E-02
      6268 MEMB     52       PMPE     H2Y      HAL2     0.900000E-01   1.00800           0   0.00000     -0.301140E-02
      6269 MEMB     52       PMPE     C23      CTL2    -0.180000       12.0110           0   0.00000     -0.301140E-02
      6270 MEMB     52       PMPE     H3R      HAL2     0.900000E-01   1.00800           0   0.00000     -0.301140E-02
      6271 MEMB     52       PMPE     H3S      HAL2     0.900000E-01   1.00800           0   0.00000     -0.301140E-02
      6272 MEMB     52       PMPE     C24      CTL2    -0.180000       12.0110           0   0.00000     -0.301140E-02
      6273 MEMB     52       PMPE     H4R      HAL2     0.900000E-01   1.00800           0   0.00000     -0.301140E-02
      6274 MEMB     52       PMPE     H4S      HAL2     0.900000E-01   1.00800           0   0.00000     -0.301140E-02
      6275 MEMB     52       PMPE     C25      CTL2    -0.180000       12.0110           0   0.00000     -0.301140E-02
      6276 MEMB     52       PMPE     H5R      HAL2     0.900000E-01   1.00800           0   0.00000     -0.301140E-02
      6277 MEMB     52       PMPE     H5S      HAL2     0.900000E-01   1.00800           0   0.00000     -0.301140E-02
      6278 MEMB     52       PMPE     C26      CTL2    -0.180000       12.0110           0   0.00000     -0.301140E-02
      6279 MEMB     52       PMPE     H6R      HAL2     0.900000E-01   1.00800           0   0.00000     -0.301140E-02
      6280 MEMB     52       PMPE     H6S      HAL2     0.900000E-01   1.00800           0   0.00000     -0.301140E-02
      6281 MEMB     52       PMPE     C27      CTL2    -0.180000       12.0110           0   0.00000     -0.301140E-02
      6282 MEMB     52       PMPE     H7R      HAL2     0.900000E-01   1.00800           0   0.00000     -0.301140E-02
      6283 MEMB     52       PMPE     H7S      HAL2     0.900000E-01   1.00800           0   0.00000     -0.301140E-02
      6284 MEMB     52       PMPE     C28      CTL2    -0.180000       12.0110           0   0.00000     -0.301140E-02
      6285 MEMB     52       PMPE     H8R      HAL2     0.900000E-01   1.00800           0   0.00000     -0.301140E-02
      6286 MEMB     52       PMPE     H8S      HAL2     0.900000E-01   1.00800           0   0.00000     -0.301140E-02
      6287 MEMB     52       PMPE     C29      CG3RC1  -0.900000E-01   12.0110           0   0.00000     -0.301140E-02
      6288 MEMB     52       PMPE     H9R      HGA1     0.900000E-01   1.00800           0   0.00000     -0.301140E-02
      6289 MEMB     52       PMPE     C217     CG3C31  -0.180000       12.0110           0   0.00000     -0.301140E-02
      6290 MEMB     52       PMPE     H17R     HGA2     0.900000E-01   1.00800           0   0.00000     -0.301140E-02
      6291 MEMB     52       PMPE     H17S     HGA2     0.900000E-01   1.00800           0   0.00000     -0.301140E-02
      6292 MEMB     52       PMPE     C210     CG3RC1  -0.900000E-01   12.0110           0   0.00000     -0.301140E-02
      6293 MEMB     52       PMPE     H10R     HGA1     0.900000E-01   1.00800           0   0.00000     -0.301140E-02
      6294 MEMB     52       PMPE     C211     CTL2    -0.180000       12.0110           0   0.00000     -0.301140E-02
      6295 MEMB     52       PMPE     H11R     HAL2     0.900000E-01   1.00800           0   0.00000     -0.301140E-02
      6296 MEMB     52       PMPE     H11S     HAL2     0.900000E-01   1.00800           0   0.00000     -0.301140E-02
      6297 MEMB     52       PMPE     C212     CTL2    -0.180000       12.0110           0   0.00000     -0.301140E-02
      6298 MEMB     52       PMPE     H12R     HAL2     0.900000E-01   1.00800           0   0.00000     -0.301140E-02
      6299 MEMB     52       PMPE     H12S     HAL2     0.900000E-01   1.00800           0   0.00000     -0.301140E-02
      6300 MEMB     52       PMPE     C213     CTL2    -0.180000       12.0110           0   0.00000     -0.301140E-02
      6301 MEMB     52       PMPE     H13R     HAL2     0.900000E-01   1.00800           0   0.00000     -0.301140E-02
      6302 MEMB     52       PMPE     H13S     HAL2     0.900000E-01   1.00800           0   0.00000     -0.301140E-02
      6303 MEMB     52       PMPE     C214     CTL2    -0.180000       12.0110           0   0.00000     -0.301140E-02
      6304 MEMB     52       PMPE     H14R     HAL2     0.900000E-01   1.00800           0   0.00000     -0.301140E-02
      6305 MEMB     52       PMPE     H14S     HAL2     0.900000E-01   1.00800           0   0.00000     -0.301140E-02
      6306 MEMB     52       PMPE     C215     CTL2    -0.180000       12.0110           0   0.00000     -0.301140E-02
      6307 MEMB     52       PMPE     H15R     HAL2     0.900000E-01   1.00800           0   0.00000     -0.301140E-02
      6308 MEMB     52       PMPE     H15S     HAL2     0.900000E-01   1.00800           0   0.00000     -0.301140E-02
      6309 MEMB     52       PMPE     C216     CTL3    -0.270000       12.0110           0   0.00000     -0.301140E-02
      6310 MEMB     52       PMPE     H16R     HAL3     0.900000E-01   1.00800           0   0.00000     -0.301140E-02
      6311 MEMB     52       PMPE     H16S     HAL3     0.900000E-01   1.00800           0   0.00000     -0.301140E-02
      6312 MEMB     52       PMPE     H16T     HAL3     0.900000E-01   1.00800           0   0.00000     -0.301140E-02
      6313 MEMB     52       PMPE     C33      CTL2    -0.180000       12.0110           0   0.00000     -0.301140E-02
      6314 MEMB     52       PMPE     H3X      HAL2     0.900000E-01   1.00800           0   0.00000     -0.301140E-02
      6315 MEMB     52       PMPE     H3Y      HAL2     0.900000E-01   1.00800           0   0.00000     -0.301140E-02
      6316 MEMB     52       PMPE     C34      CTL2    -0.180000       12.0110           0   0.00000     -0.301140E-02
      6317 MEMB     52       PMPE     H4X      HAL2     0.900000E-01   1.00800           0   0.00000     -0.301140E-02
      6318 MEMB     52       PMPE     H4Y      HAL2     0.900000E-01   1.00800           0   0.00000     -0.301140E-02
      6319 MEMB     52       PMPE     C35      CTL2    -0.180000       12.0110           0   0.00000     -0.301140E-02
      6320 MEMB     52       PMPE     H5X      HAL2     0.900000E-01   1.00800           0   0.00000     -0.301140E-02
      6321 MEMB     52       PMPE     H5Y      HAL2     0.900000E-01   1.00800           0   0.00000     -0.301140E-02
      6322 MEMB     52       PMPE     C36      CTL2    -0.180000       12.0110           0   0.00000     -0.301140E-02
      6323 MEMB     52       PMPE     H6X      HAL2     0.900000E-01   1.00800           0   0.00000     -0.301140E-02
      6324 MEMB     52       PMPE     H6Y      HAL2     0.900000E-01   1.00800           0   0.00000     -0.301140E-02
      6325 MEMB     52       PMPE     C37      CTL2    -0.180000       12.0110           0   0.00000     -0.301140E-02
      6326 MEMB     52       PMPE     H7X      HAL2     0.900000E-01   1.00800           0   0.00000     -0.301140E-02
      6327 MEMB     52       PMPE     H7Y      HAL2     0.900000E-01   1.00800           0   0.00000     -0.301140E-02
      6328 MEMB     52       PMPE     C38      CTL2    -0.180000       12.0110           0   0.00000     -0.301140E-02
      6329 MEMB     52       PMPE     H8X      HAL2     0.900000E-01   1.00800           0   0.00000     -0.301140E-02
      6330 MEMB     52       PMPE     H8Y      HAL2     0.900000E-01   1.00800           0   0.00000     -0.301140E-02
      6331 MEMB     52       PMPE     C39      CTL2    -0.180000       12.0110           0   0.00000     -0.301140E-02
      6332 MEMB     52       PMPE     H9X      HAL2     0.900000E-01   1.00800           0   0.00000     -0.301140E-02
      6333 MEMB     52       PMPE     H9Y      HAL2     0.900000E-01   1.00800           0   0.00000     -0.301140E-02
      6334 MEMB     52       PMPE     C310     CTL2    -0.180000       12.0110           0   0.00000     -0.301140E-02
      6335 MEMB     52       PMPE     H10X     HAL2     0.900000E-01   1.00800           0   0.00000     -0.301140E-02
      6336 MEMB     52       PMPE     H10Y     HAL2     0.900000E-01   1.00800           0   0.00000     -0.301140E-02
      6337 MEMB     52       PMPE     C311     CTL2    -0.180000       12.0110           0   0.00000     -0.301140E-02
      6338 MEMB     52       PMPE     H11X     HAL2     0.900000E-01   1.00800           0   0.00000     -0.301140E-02
      6339 MEMB     52       PMPE     H11Y     HAL2     0.900000E-01   1.00800           0   0.00000     -0.301140E-02
      6340 MEMB     52       PMPE     C312     CTL2    -0.180000       12.0110           0   0.00000     -0.301140E-02
      6341 MEMB     52       PMPE     H12X     HAL2     0.900000E-01   1.00800           0   0.00000     -0.301140E-02
      6342 MEMB     52       PMPE     H12Y     HAL2     0.900000E-01   1.00800           0   0.00000     -0.301140E-02
      6343 MEMB     52       PMPE     C313     CTL2    -0.180000       12.0110           0   0.00000     -0.301140E-02
      6344 MEMB     52       PMPE     H13X     HAL2     0.900000E-01   1.00800           0   0.00000     -0.301140E-02
      6345 MEMB     52       PMPE     H13Y     HAL2     0.900000E-01   1.00800           0   0.00000     -0.301140E-02
      6346 MEMB     52       PMPE     C314     CTL2    -0.180000       12.0110           0   0.00000     -0.301140E-02
      6347 MEMB     52       PMPE     H14X     HAL2     0.900000E-01   1.00800           0   0.00000     -0.301140E-02
      6348 MEMB     52       PMPE     H14Y     HAL2     0.900000E-01   1.00800           0   0.00000     -0.301140E-02
      6349 MEMB     52       PMPE     C315     CTL2    -0.180000       12.0110           0   0.00000     -0.301140E-02
      6350 MEMB     52       PMPE     H15X     HAL2     0.900000E-01   1.00800           0   0.00000     -0.301140E-02
      6351 MEMB     52       PMPE     H15Y     HAL2     0.900000E-01   1.00800           0   0.00000     -0.301140E-02
      6352 MEMB     52       PMPE     C316     CTL3    -0.270000       12.0110           0   0.00000     -0.301140E-02
      6353 MEMB     52       PMPE     H16X     HAL3     0.900000E-01   1.00800           0   0.00000     -0.301140E-02
      6354 MEMB     52       PMPE     H16Y     HAL3     0.900000E-01   1.00800           0   0.00000     -0.301140E-02
      6355 MEMB     52       PMPE     H16Z     HAL3     0.900000E-01   1.00800           0   0.00000     -0.301140E-02
      6356 MEMB     53       PMPE     N        NH3L    -0.300000       14.0070           0   0.00000     -0.301140E-02
      6357 MEMB     53       PMPE     HN1      HCL      0.330000       1.00800           0   0.00000     -0.301140E-02
      6358 MEMB     53       PMPE     HN2      HCL      0.330000       1.00800           0   0.00000     -0.301140E-02
      6359 MEMB     53       PMPE     HN3      HCL      0.330000       1.00800           0   0.00000     -0.301140E-02
      6360 MEMB     53       PMPE     C12      CTL2     0.130000       12.0110           0   0.00000     -0.301140E-02
      6361 MEMB     53       PMPE     H12A     HAL2     0.900000E-01   1.00800           0   0.00000     -0.301140E-02
      6362 MEMB     53       PMPE     H12B     HAL2     0.900000E-01   1.00800           0   0.00000     -0.301140E-02
      6363 MEMB     53       PMPE     C11      CTL2    -0.800000E-01   12.0110           0   0.00000     -0.301140E-02
      6364 MEMB     53       PMPE     H11A     HAL2     0.900000E-01   1.00800           0   0.00000     -0.301140E-02
      6365 MEMB     53       PMPE     H11B     HAL2     0.900000E-01   1.00800           0   0.00000     -0.301140E-02
      6366 MEMB     53       PMPE     P        PL        1.50000       30.9740           0   0.00000     -0.301140E-02
      6367 MEMB     53       PMPE     O13      O2L     -0.780000       15.9994           0   0.00000     -0.301140E-02
      6368 MEMB     53       PMPE     O14      O2L     -0.780000       15.9994           0   0.00000     -0.301140E-02
      6369 MEMB     53       PMPE     O11      OSLP    -0.570000       15.9994           0   0.00000     -0.301140E-02
      6370 MEMB     53       PMPE     O12      OSLP    -0.570000       15.9994           0   0.00000     -0.301140E-02
      6371 MEMB     53       PMPE     C1       CTL2    -0.800000E-01   12.0110           0   0.00000     -0.301140E-02
      6372 MEMB     53       PMPE     HA       HAL2     0.900000E-01   1.00800           0   0.00000     -0.301140E-02
      6373 MEMB     53       PMPE     HB       HAL2     0.900000E-01   1.00800           0   0.00000     -0.301140E-02
      6374 MEMB     53       PMPE     C2       CTL1     0.170000       12.0110           0   0.00000     -0.301140E-02
      6375 MEMB     53       PMPE     HS       HAL1     0.900000E-01   1.00800           0   0.00000     -0.301140E-02
      6376 MEMB     53       PMPE     O21      OSL     -0.490000       15.9994           0   0.00000     -0.301140E-02
      6377 MEMB     53       PMPE     C21      CL       0.900000       12.0110           0   0.00000     -0.301140E-02
      6378 MEMB     53       PMPE     O22      OBL     -0.630000       15.9994           0   0.00000     -0.301140E-02
      6379 MEMB     53       PMPE     C22      CTL2    -0.220000       12.0110           0   0.00000     -0.301140E-02
      6380 MEMB     53       PMPE     H2R      HAL2     0.900000E-01   1.00800           0   0.00000     -0.301140E-02
      6381 MEMB     53       PMPE     H2S      HAL2     0.900000E-01   1.00800           0   0.00000     -0.301140E-02
      6382 MEMB     53       PMPE     C3       CTL2     0.800000E-01   12.0110           0   0.00000     -0.301140E-02
      6383 MEMB     53       PMPE     HX       HAL2     0.900000E-01   1.00800           0   0.00000     -0.301140E-02
      6384 MEMB     53       PMPE     HY       HAL2     0.900000E-01   1.00800           0   0.00000     -0.301140E-02
      6385 MEMB     53       PMPE     O31      OSL     -0.490000       15.9994           0   0.00000     -0.301140E-02
      6386 MEMB     53       PMPE     C31      CL       0.900000       12.0110           0   0.00000     -0.301140E-02
      6387 MEMB     53       PMPE     O32      OBL     -0.630000       15.9994           0   0.00000     -0.301140E-02
      6388 MEMB     53       PMPE     C32      CTL2    -0.220000       12.0110           0   0.00000     -0.301140E-02
      6389 MEMB     53       PMPE     H2X      HAL2     0.900000E-01   1.00800           0   0.00000     -0.301140E-02
      6390 MEMB     53       PMPE     H2Y      HAL2     0.900000E-01   1.00800           0   0.00000     -0.301140E-02
      6391 MEMB     53       PMPE     C23      CTL2    -0.180000       12.0110           0   0.00000     -0.301140E-02
      6392 MEMB     53       PMPE     H3R      HAL2     0.900000E-01   1.00800           0   0.00000     -0.301140E-02
      6393 MEMB     53       PMPE     H3S      HAL2     0.900000E-01   1.00800           0   0.00000     -0.301140E-02
      6394 MEMB     53       PMPE     C24      CTL2    -0.180000       12.0110           0   0.00000     -0.301140E-02
      6395 MEMB     53       PMPE     H4R      HAL2     0.900000E-01   1.00800           0   0.00000     -0.301140E-02
      6396 MEMB     53       PMPE     H4S      HAL2     0.900000E-01   1.00800           0   0.00000     -0.301140E-02
      6397 MEMB     53       PMPE     C25      CTL2    -0.180000       12.0110           0   0.00000     -0.301140E-02
      6398 MEMB     53       PMPE     H5R      HAL2     0.900000E-01   1.00800           0   0.00000     -0.301140E-02
      6399 MEMB     53       PMPE     H5S      HAL2     0.900000E-01   1.00800           0   0.00000     -0.301140E-02
      6400 MEMB     53       PMPE     C26      CTL2    -0.180000       12.0110           0   0.00000     -0.301140E-02
      6401 MEMB     53       PMPE     H6R      HAL2     0.900000E-01   1.00800           0   0.00000     -0.301140E-02
      6402 MEMB     53       PMPE     H6S      HAL2     0.900000E-01   1.00800           0   0.00000     -0.301140E-02
      6403 MEMB     53       PMPE     C27      CTL2    -0.180000       12.0110           0   0.00000     -0.301140E-02
      6404 MEMB     53       PMPE     H7R      HAL2     0.900000E-01   1.00800           0   0.00000     -0.301140E-02
      6405 MEMB     53       PMPE     H7S      HAL2     0.900000E-01   1.00800           0   0.00000     -0.301140E-02
      6406 MEMB     53       PMPE     C28      CTL2    -0.180000       12.0110           0   0.00000     -0.301140E-02
      6407 MEMB     53       PMPE     H8R      HAL2     0.900000E-01   1.00800           0   0.00000     -0.301140E-02
      6408 MEMB     53       PMPE     H8S      HAL2     0.900000E-01   1.00800           0   0.00000     -0.301140E-02
      6409 MEMB     53       PMPE     C29      CG3RC1  -0.900000E-01   12.0110           0   0.00000     -0.301140E-02
      6410 MEMB     53       PMPE     H9R      HGA1     0.900000E-01   1.00800           0   0.00000     -0.301140E-02
      6411 MEMB     53       PMPE     C217     CG3C31  -0.180000       12.0110           0   0.00000     -0.301140E-02
      6412 MEMB     53       PMPE     H17R     HGA2     0.900000E-01   1.00800           0   0.00000     -0.301140E-02
      6413 MEMB     53       PMPE     H17S     HGA2     0.900000E-01   1.00800           0   0.00000     -0.301140E-02
      6414 MEMB     53       PMPE     C210     CG3RC1  -0.900000E-01   12.0110           0   0.00000     -0.301140E-02
      6415 MEMB     53       PMPE     H10R     HGA1     0.900000E-01   1.00800           0   0.00000     -0.301140E-02
      6416 MEMB     53       PMPE     C211     CTL2    -0.180000       12.0110           0   0.00000     -0.301140E-02
      6417 MEMB     53       PMPE     H11R     HAL2     0.900000E-01   1.00800           0   0.00000     -0.301140E-02
      6418 MEMB     53       PMPE     H11S     HAL2     0.900000E-01   1.00800           0   0.00000     -0.301140E-02
      6419 MEMB     53       PMPE     C212     CTL2    -0.180000       12.0110           0   0.00000     -0.301140E-02
      6420 MEMB     53       PMPE     H12R     HAL2     0.900000E-01   1.00800           0   0.00000     -0.301140E-02
      6421 MEMB     53       PMPE     H12S     HAL2     0.900000E-01   1.00800           0   0.00000     -0.301140E-02
      6422 MEMB     53       PMPE     C213     CTL2    -0.180000       12.0110           0   0.00000     -0.301140E-02
      6423 MEMB     53       PMPE     H13R     HAL2     0.900000E-01   1.00800           0   0.00000     -0.301140E-02
      6424 MEMB     53       PMPE     H13S     HAL2     0.900000E-01   1.00800           0   0.00000     -0.301140E-02
      6425 MEMB     53       PMPE     C214     CTL2    -0.180000       12.0110           0   0.00000     -0.301140E-02
      6426 MEMB     53       PMPE     H14R     HAL2     0.900000E-01   1.00800           0   0.00000     -0.301140E-02
      6427 MEMB     53       PMPE     H14S     HAL2     0.900000E-01   1.00800           0   0.00000     -0.301140E-02
      6428 MEMB     53       PMPE     C215     CTL2    -0.180000       12.0110           0   0.00000     -0.301140E-02
      6429 MEMB     53       PMPE     H15R     HAL2     0.900000E-01   1.00800           0   0.00000     -0.301140E-02
      6430 MEMB     53       PMPE     H15S     HAL2     0.900000E-01   1.00800           0   0.00000     -0.301140E-02
      6431 MEMB     53       PMPE     C216     CTL3    -0.270000       12.0110           0   0.00000     -0.301140E-02
      6432 MEMB     53       PMPE     H16R     HAL3     0.900000E-01   1.00800           0   0.00000     -0.301140E-02
      6433 MEMB     53       PMPE     H16S     HAL3     0.900000E-01   1.00800           0   0.00000     -0.301140E-02
      6434 MEMB     53       PMPE     H16T     HAL3     0.900000E-01   1.00800           0   0.00000     -0.301140E-02
      6435 MEMB     53       PMPE     C33      CTL2    -0.180000       12.0110           0   0.00000     -0.301140E-02
      6436 MEMB     53       PMPE     H3X      HAL2     0.900000E-01   1.00800           0   0.00000     -0.301140E-02
      6437 MEMB     53       PMPE     H3Y      HAL2     0.900000E-01   1.00800           0   0.00000     -0.301140E-02
      6438 MEMB     53       PMPE     C34      CTL2    -0.180000       12.0110           0   0.00000     -0.301140E-02
      6439 MEMB     53       PMPE     H4X      HAL2     0.900000E-01   1.00800           0   0.00000     -0.301140E-02
      6440 MEMB     53       PMPE     H4Y      HAL2     0.900000E-01   1.00800           0   0.00000     -0.301140E-02
      6441 MEMB     53       PMPE     C35      CTL2    -0.180000       12.0110           0   0.00000     -0.301140E-02
      6442 MEMB     53       PMPE     H5X      HAL2     0.900000E-01   1.00800           0   0.00000     -0.301140E-02
      6443 MEMB     53       PMPE     H5Y      HAL2     0.900000E-01   1.00800           0   0.00000     -0.301140E-02
      6444 MEMB     53       PMPE     C36      CTL2    -0.180000       12.0110           0   0.00000     -0.301140E-02
      6445 MEMB     53       PMPE     H6X      HAL2     0.900000E-01   1.00800           0   0.00000     -0.301140E-02
      6446 MEMB     53       PMPE     H6Y      HAL2     0.900000E-01   1.00800           0   0.00000     -0.301140E-02
      6447 MEMB     53       PMPE     C37      CTL2    -0.180000       12.0110           0   0.00000     -0.301140E-02
      6448 MEMB     53       PMPE     H7X      HAL2     0.900000E-01   1.00800           0   0.00000     -0.301140E-02
      6449 MEMB     53       PMPE     H7Y      HAL2     0.900000E-01   1.00800           0   0.00000     -0.301140E-02
      6450 MEMB     53       PMPE     C38      CTL2    -0.180000       12.0110           0   0.00000     -0.301140E-02
      6451 MEMB     53       PMPE     H8X      HAL2     0.900000E-01   1.00800           0   0.00000     -0.301140E-02
      6452 MEMB     53       PMPE     H8Y      HAL2     0.900000E-01   1.00800           0   0.00000     -0.301140E-02
      6453 MEMB     53       PMPE     C39      CTL2    -0.180000       12.0110           0   0.00000     -0.301140E-02
      6454 MEMB     53       PMPE     H9X      HAL2     0.900000E-01   1.00800           0   0.00000     -0.301140E-02
      6455 MEMB     53       PMPE     H9Y      HAL2     0.900000E-01   1.00800           0   0.00000     -0.301140E-02
      6456 MEMB     53       PMPE     C310     CTL2    -0.180000       12.0110           0   0.00000     -0.301140E-02
      6457 MEMB     53       PMPE     H10X     HAL2     0.900000E-01   1.00800           0   0.00000     -0.301140E-02
      6458 MEMB     53       PMPE     H10Y     HAL2     0.900000E-01   1.00800           0   0.00000     -0.301140E-02
      6459 MEMB     53       PMPE     C311     CTL2    -0.180000       12.0110           0   0.00000     -0.301140E-02
      6460 MEMB     53       PMPE     H11X     HAL2     0.900000E-01   1.00800           0   0.00000     -0.301140E-02
      6461 MEMB     53       PMPE     H11Y     HAL2     0.900000E-01   1.00800           0   0.00000     -0.301140E-02
      6462 MEMB     53       PMPE     C312     CTL2    -0.180000       12.0110           0   0.00000     -0.301140E-02
      6463 MEMB     53       PMPE     H12X     HAL2     0.900000E-01   1.00800           0   0.00000     -0.301140E-02
      6464 MEMB     53       PMPE     H12Y     HAL2     0.900000E-01   1.00800           0   0.00000     -0.301140E-02
      6465 MEMB     53       PMPE     C313     CTL2    -0.180000       12.0110           0   0.00000     -0.301140E-02
      6466 MEMB     53       PMPE     H13X     HAL2     0.900000E-01   1.00800           0   0.00000     -0.301140E-02
      6467 MEMB     53       PMPE     H13Y     HAL2     0.900000E-01   1.00800           0   0.00000     -0.301140E-02
      6468 MEMB     53       PMPE     C314     CTL2    -0.180000       12.0110           0   0.00000     -0.301140E-02
      6469 MEMB     53       PMPE     H14X     HAL2     0.900000E-01   1.00800           0   0.00000     -0.301140E-02
      6470 MEMB     53       PMPE     H14Y     HAL2     0.900000E-01   1.00800           0   0.00000     -0.301140E-02
      6471 MEMB     53       PMPE     C315     CTL2    -0.180000       12.0110           0   0.00000     -0.301140E-02
      6472 MEMB     53       PMPE     H15X     HAL2     0.900000E-01   1.00800           0   0.00000     -0.301140E-02
      6473 MEMB     53       PMPE     H15Y     HAL2     0.900000E-01   1.00800           0   0.00000     -0.301140E-02
      6474 MEMB     53       PMPE     C316     CTL3    -0.270000       12.0110           0   0.00000     -0.301140E-02
      6475 MEMB     53       PMPE     H16X     HAL3     0.900000E-01   1.00800           0   0.00000     -0.301140E-02
      6476 MEMB     53       PMPE     H16Y     HAL3     0.900000E-01   1.00800           0   0.00000     -0.301140E-02
      6477 MEMB     53       PMPE     H16Z     HAL3     0.900000E-01   1.00800           0   0.00000     -0.301140E-02
      6478 MEMB     54       PMPG     C13      CTL2     0.500000E-01   12.0110           0   0.00000     -0.301140E-02
      6479 MEMB     54       PMPG     H13A     HAL2     0.900000E-01   1.00800           0   0.00000     -0.301140E-02
      6480 MEMB     54       PMPG     H13B     HAL2     0.900000E-01   1.00800           0   0.00000     -0.301140E-02
      6481 MEMB     54       PMPG     OC3      OHL     -0.660000       15.9994           0   0.00000     -0.301140E-02
      6482 MEMB     54       PMPG     HO3      HOL      0.430000       1.00800           0   0.00000     -0.301140E-02
      6483 MEMB     54       PMPG     C12      CTL1     0.140000       12.0110           0   0.00000     -0.301140E-02
      6484 MEMB     54       PMPG     H12A     HAL1     0.900000E-01   1.00800           0   0.00000     -0.301140E-02
      6485 MEMB     54       PMPG     OC2      OHL     -0.660000       15.9994           0   0.00000     -0.301140E-02
      6486 MEMB     54       PMPG     HO2      HOL      0.430000       1.00800           0   0.00000     -0.301140E-02
      6487 MEMB     54       PMPG     C11      CTL2    -0.800000E-01   12.0110           0   0.00000     -0.301140E-02
      6488 MEMB     54       PMPG     H11A     HAL2     0.900000E-01   1.00800           0   0.00000     -0.301140E-02
      6489 MEMB     54       PMPG     H11B     HAL2     0.900000E-01   1.00800           0   0.00000     -0.301140E-02
      6490 MEMB     54       PMPG     P        PL        1.50000       30.9740           0   0.00000     -0.301140E-02
      6491 MEMB     54       PMPG     O13      O2L     -0.780000       15.9994           0   0.00000     -0.301140E-02
      6492 MEMB     54       PMPG     O14      O2L     -0.780000       15.9994           0   0.00000     -0.301140E-02
      6493 MEMB     54       PMPG     O11      OSLP    -0.570000       15.9994           0   0.00000     -0.301140E-02
      6494 MEMB     54       PMPG     O12      OSLP    -0.570000       15.9994           0   0.00000     -0.301140E-02
      6495 MEMB     54       PMPG     C1       CTL2    -0.800000E-01   12.0110           0   0.00000     -0.301140E-02
      6496 MEMB     54       PMPG     HA       HAL2     0.900000E-01   1.00800           0   0.00000     -0.301140E-02
      6497 MEMB     54       PMPG     HB       HAL2     0.900000E-01   1.00800           0   0.00000     -0.301140E-02
      6498 MEMB     54       PMPG     C2       CTL1     0.170000       12.0110           0   0.00000     -0.301140E-02
      6499 MEMB     54       PMPG     HS       HAL1     0.900000E-01   1.00800           0   0.00000     -0.301140E-02
      6500 MEMB     54       PMPG     O21      OSL     -0.490000       15.9994           0   0.00000     -0.301140E-02
      6501 MEMB     54       PMPG     C21      CL       0.900000       12.0110           0   0.00000     -0.301140E-02
      6502 MEMB     54       PMPG     O22      OBL     -0.630000       15.9994           0   0.00000     -0.301140E-02
      6503 MEMB     54       PMPG     C22      CTL2    -0.220000       12.0110           0   0.00000     -0.301140E-02
      6504 MEMB     54       PMPG     H2R      HAL2     0.900000E-01   1.00800           0   0.00000     -0.301140E-02
      6505 MEMB     54       PMPG     H2S      HAL2     0.900000E-01   1.00800           0   0.00000     -0.301140E-02
      6506 MEMB     54       PMPG     C3       CTL2     0.800000E-01   12.0110           0   0.00000     -0.301140E-02
      6507 MEMB     54       PMPG     HX       HAL2     0.900000E-01   1.00800           0   0.00000     -0.301140E-02
      6508 MEMB     54       PMPG     HY       HAL2     0.900000E-01   1.00800           0   0.00000     -0.301140E-02
      6509 MEMB     54       PMPG     O31      OSL     -0.490000       15.9994           0   0.00000     -0.301140E-02
      6510 MEMB     54       PMPG     C31      CL       0.900000       12.0110           0   0.00000     -0.301140E-02
      6511 MEMB     54       PMPG     O32      OBL     -0.630000       15.9994           0   0.00000     -0.301140E-02
      6512 MEMB     54       PMPG     C32      CTL2    -0.220000       12.0110           0   0.00000     -0.301140E-02
      6513 MEMB     54       PMPG     H2X      HAL2     0.900000E-01   1.00800           0   0.00000     -0.301140E-02
      6514 MEMB     54       PMPG     H2Y      HAL2     0.900000E-01   1.00800           0   0.00000     -0.301140E-02
      6515 MEMB     54       PMPG     C23      CTL2    -0.180000       12.0110           0   0.00000     -0.301140E-02
      6516 MEMB     54       PMPG     H3R      HAL2     0.900000E-01   1.00800           0   0.00000     -0.301140E-02
      6517 MEMB     54       PMPG     H3S      HAL2     0.900000E-01   1.00800           0   0.00000     -0.301140E-02
      6518 MEMB     54       PMPG     C24      CTL2    -0.180000       12.0110           0   0.00000     -0.301140E-02
      6519 MEMB     54       PMPG     H4R      HAL2     0.900000E-01   1.00800           0   0.00000     -0.301140E-02
      6520 MEMB     54       PMPG     H4S      HAL2     0.900000E-01   1.00800           0   0.00000     -0.301140E-02
      6521 MEMB     54       PMPG     C25      CTL2    -0.180000       12.0110           0   0.00000     -0.301140E-02
      6522 MEMB     54       PMPG     H5R      HAL2     0.900000E-01   1.00800           0   0.00000     -0.301140E-02
      6523 MEMB     54       PMPG     H5S      HAL2     0.900000E-01   1.00800           0   0.00000     -0.301140E-02
      6524 MEMB     54       PMPG     C26      CTL2    -0.180000       12.0110           0   0.00000     -0.301140E-02
      6525 MEMB     54       PMPG     H6R      HAL2     0.900000E-01   1.00800           0   0.00000     -0.301140E-02
      6526 MEMB     54       PMPG     H6S      HAL2     0.900000E-01   1.00800           0   0.00000     -0.301140E-02
      6527 MEMB     54       PMPG     C27      CTL2    -0.180000       12.0110           0   0.00000     -0.301140E-02
      6528 MEMB     54       PMPG     H7R      HAL2     0.900000E-01   1.00800           0   0.00000     -0.301140E-02
      6529 MEMB     54       PMPG     H7S      HAL2     0.900000E-01   1.00800           0   0.00000     -0.301140E-02
      6530 MEMB     54       PMPG     C28      CTL2    -0.180000       12.0110           0   0.00000     -0.301140E-02
      6531 MEMB     54       PMPG     H8R      HAL2     0.900000E-01   1.00800           0   0.00000     -0.301140E-02
      6532 MEMB     54       PMPG     H8S      HAL2     0.900000E-01   1.00800           0   0.00000     -0.301140E-02
      6533 MEMB     54       PMPG     C29      CG3RC1  -0.900000E-01   12.0110           0   0.00000     -0.301140E-02
      6534 MEMB     54       PMPG     H9R      HGA1     0.900000E-01   1.00800           0   0.00000     -0.301140E-02
      6535 MEMB     54       PMPG     C217     CG3C31  -0.180000       12.0110           0   0.00000     -0.301140E-02
      6536 MEMB     54       PMPG     H17R     HGA2     0.900000E-01   1.00800           0   0.00000     -0.301140E-02
      6537 MEMB     54       PMPG     H17S     HGA2     0.900000E-01   1.00800           0   0.00000     -0.301140E-02
      6538 MEMB     54       PMPG     C210     CG3RC1  -0.900000E-01   12.0110           0   0.00000     -0.301140E-02
      6539 MEMB     54       PMPG     H10R     HGA1     0.900000E-01   1.00800           0   0.00000     -0.301140E-02
      6540 MEMB     54       PMPG     C211     CTL2    -0.180000       12.0110           0   0.00000     -0.301140E-02
      6541 MEMB     54       PMPG     H11R     HAL2     0.900000E-01   1.00800           0   0.00000     -0.301140E-02
      6542 MEMB     54       PMPG     H11S     HAL2     0.900000E-01   1.00800           0   0.00000     -0.301140E-02
      6543 MEMB     54       PMPG     C212     CTL2    -0.180000       12.0110           0   0.00000     -0.301140E-02
      6544 MEMB     54       PMPG     H12R     HAL2     0.900000E-01   1.00800           0   0.00000     -0.301140E-02
      6545 MEMB     54       PMPG     H12S     HAL2     0.900000E-01   1.00800           0   0.00000     -0.301140E-02
      6546 MEMB     54       PMPG     C213     CTL2    -0.180000       12.0110           0   0.00000     -0.301140E-02
      6547 MEMB     54       PMPG     H13R     HAL2     0.900000E-01   1.00800           0   0.00000     -0.301140E-02
      6548 MEMB     54       PMPG     H13S     HAL2     0.900000E-01   1.00800           0   0.00000     -0.301140E-02
      6549 MEMB     54       PMPG     C214     CTL2    -0.180000       12.0110           0   0.00000     -0.301140E-02
      6550 MEMB     54       PMPG     H14R     HAL2     0.900000E-01   1.00800           0   0.00000     -0.301140E-02
      6551 MEMB     54       PMPG     H14S     HAL2     0.900000E-01   1.00800           0   0.00000     -0.301140E-02
      6552 MEMB     54       PMPG     C215     CTL2    -0.180000       12.0110           0   0.00000     -0.301140E-02
      6553 MEMB     54       PMPG     H15R     HAL2     0.900000E-01   1.00800           0   0.00000     -0.301140E-02
      6554 MEMB     54       PMPG     H15S     HAL2     0.900000E-01   1.00800           0   0.00000     -0.301140E-02
      6555 MEMB     54       PMPG     C216     CTL3    -0.270000       12.0110           0   0.00000     -0.301140E-02
      6556 MEMB     54       PMPG     H16R     HAL3     0.900000E-01   1.00800           0   0.00000     -0.301140E-02
      6557 MEMB     54       PMPG     H16S     HAL3     0.900000E-01   1.00800           0   0.00000     -0.301140E-02
      6558 MEMB     54       PMPG     H16T     HAL3     0.900000E-01   1.00800           0   0.00000     -0.301140E-02
      6559 MEMB     54       PMPG     C33      CTL2    -0.180000       12.0110           0   0.00000     -0.301140E-02
      6560 MEMB     54       PMPG     H3X      HAL2     0.900000E-01   1.00800           0   0.00000     -0.301140E-02
      6561 MEMB     54       PMPG     H3Y      HAL2     0.900000E-01   1.00800           0   0.00000     -0.301140E-02
      6562 MEMB     54       PMPG     C34      CTL2    -0.180000       12.0110           0   0.00000     -0.301140E-02
      6563 MEMB     54       PMPG     H4X      HAL2     0.900000E-01   1.00800           0   0.00000     -0.301140E-02
      6564 MEMB     54       PMPG     H4Y      HAL2     0.900000E-01   1.00800           0   0.00000     -0.301140E-02
      6565 MEMB     54       PMPG     C35      CTL2    -0.180000       12.0110           0   0.00000     -0.301140E-02
      6566 MEMB     54       PMPG     H5X      HAL2     0.900000E-01   1.00800           0   0.00000     -0.301140E-02
      6567 MEMB     54       PMPG     H5Y      HAL2     0.900000E-01   1.00800           0   0.00000     -0.301140E-02
      6568 MEMB     54       PMPG     C36      CTL2    -0.180000       12.0110           0   0.00000     -0.301140E-02
      6569 MEMB     54       PMPG     H6X      HAL2     0.900000E-01   1.00800           0   0.00000     -0.301140E-02
      6570 MEMB     54       PMPG     H6Y      HAL2     0.900000E-01   1.00800           0   0.00000     -0.301140E-02
      6571 MEMB     54       PMPG     C37      CTL2    -0.180000       12.0110           0   0.00000     -0.301140E-02
      6572 MEMB     54       PMPG     H7X      HAL2     0.900000E-01   1.00800           0   0.00000     -0.301140E-02
      6573 MEMB     54       PMPG     H7Y      HAL2     0.900000E-01   1.00800           0   0.00000     -0.301140E-02
      6574 MEMB     54       PMPG     C38      CTL2    -0.180000       12.0110           0   0.00000     -0.301140E-02
      6575 MEMB     54       PMPG     H8X      HAL2     0.900000E-01   1.00800           0   0.00000     -0.301140E-02
      6576 MEMB     54       PMPG     H8Y      HAL2     0.900000E-01   1.00800           0   0.00000     -0.301140E-02
      6577 MEMB     54       PMPG     C39      CTL2    -0.180000       12.0110           0   0.00000     -0.301140E-02
      6578 MEMB     54       PMPG     H9X      HAL2     0.900000E-01   1.00800           0   0.00000     -0.301140E-02
      6579 MEMB     54       PMPG     H9Y      HAL2     0.900000E-01   1.00800           0   0.00000     -0.301140E-02
      6580 MEMB     54       PMPG     C310     CTL2    -0.180000       12.0110           0   0.00000     -0.301140E-02
      6581 MEMB     54       PMPG     H10X     HAL2     0.900000E-01   1.00800           0   0.00000     -0.301140E-02
      6582 MEMB     54       PMPG     H10Y     HAL2     0.900000E-01   1.00800           0   0.00000     -0.301140E-02
      6583 MEMB     54       PMPG     C311     CTL2    -0.180000       12.0110           0   0.00000     -0.301140E-02
      6584 MEMB     54       PMPG     H11X     HAL2     0.900000E-01   1.00800           0   0.00000     -0.301140E-02
      6585 MEMB     54       PMPG     H11Y     HAL2     0.900000E-01   1.00800           0   0.00000     -0.301140E-02
      6586 MEMB     54       PMPG     C312     CTL2    -0.180000       12.0110           0   0.00000     -0.301140E-02
      6587 MEMB     54       PMPG     H12X     HAL2     0.900000E-01   1.00800           0   0.00000     -0.301140E-02
      6588 MEMB     54       PMPG     H12Y     HAL2     0.900000E-01   1.00800           0   0.00000     -0.301140E-02
      6589 MEMB     54       PMPG     C313     CTL2    -0.180000       12.0110           0   0.00000     -0.301140E-02
      6590 MEMB     54       PMPG     H13X     HAL2     0.900000E-01   1.00800           0   0.00000     -0.301140E-02
      6591 MEMB     54       PMPG     H13Y     HAL2     0.900000E-01   1.00800           0   0.00000     -0.301140E-02
      6592 MEMB     54       PMPG     C314     CTL2    -0.180000       12.0110           0   0.00000     -0.301140E-02
      6593 MEMB     54       PMPG     H14X     HAL2     0.900000E-01   1.00800           0   0.00000     -0.301140E-02
      6594 MEMB     54       PMPG     H14Y     HAL2     0.900000E-01   1.00800           0   0.00000     -0.301140E-02
      6595 MEMB     54       PMPG     C315     CTL2    -0.180000       12.0110           0   0.00000     -0.301140E-02
      6596 MEMB     54       PMPG     H15X     HAL2     0.900000E-01   1.00800           0   0.00000     -0.301140E-02
      6597 MEMB     54       PMPG     H15Y     HAL2     0.900000E-01   1.00800           0   0.00000     -0.301140E-02
      6598 MEMB     54       PMPG     C316     CTL3    -0.270000       12.0110           0   0.00000     -0.301140E-02
      6599 MEMB     54       PMPG     H16X     HAL3     0.900000E-01   1.00800           0   0.00000     -0.301140E-02
      6600 MEMB     54       PMPG     H16Y     HAL3     0.900000E-01   1.00800           0   0.00000     -0.301140E-02
      6601 MEMB     54       PMPG     H16Z     HAL3     0.900000E-01   1.00800           0   0.00000     -0.301140E-02
      6602 MEMB     55       PMPG     C13      CTL2     0.500000E-01   12.0110           0   0.00000     -0.301140E-02
      6603 MEMB     55       PMPG     H13A     HAL2     0.900000E-01   1.00800           0   0.00000     -0.301140E-02
      6604 MEMB     55       PMPG     H13B     HAL2     0.900000E-01   1.00800           0   0.00000     -0.301140E-02
      6605 MEMB     55       PMPG     OC3      OHL     -0.660000       15.9994           0   0.00000     -0.301140E-02
      6606 MEMB     55       PMPG     HO3      HOL      0.430000       1.00800           0   0.00000     -0.301140E-02
      6607 MEMB     55       PMPG     C12      CTL1     0.140000       12.0110           0   0.00000     -0.301140E-02
      6608 MEMB     55       PMPG     H12A     HAL1     0.900000E-01   1.00800           0   0.00000     -0.301140E-02
      6609 MEMB     55       PMPG     OC2      OHL     -0.660000       15.9994           0   0.00000     -0.301140E-02
      6610 MEMB     55       PMPG     HO2      HOL      0.430000       1.00800           0   0.00000     -0.301140E-02
      6611 MEMB     55       PMPG     C11      CTL2    -0.800000E-01   12.0110           0   0.00000     -0.301140E-02
      6612 MEMB     55       PMPG     H11A     HAL2     0.900000E-01   1.00800           0   0.00000     -0.301140E-02
      6613 MEMB     55       PMPG     H11B     HAL2     0.900000E-01   1.00800           0   0.00000     -0.301140E-02
      6614 MEMB     55       PMPG     P        PL        1.50000       30.9740           0   0.00000     -0.301140E-02
      6615 MEMB     55       PMPG     O13      O2L     -0.780000       15.9994           0   0.00000     -0.301140E-02
      6616 MEMB     55       PMPG     O14      O2L     -0.780000       15.9994           0   0.00000     -0.301140E-02
      6617 MEMB     55       PMPG     O11      OSLP    -0.570000       15.9994           0   0.00000     -0.301140E-02
      6618 MEMB     55       PMPG     O12      OSLP    -0.570000       15.9994           0   0.00000     -0.301140E-02
      6619 MEMB     55       PMPG     C1       CTL2    -0.800000E-01   12.0110           0   0.00000     -0.301140E-02
      6620 MEMB     55       PMPG     HA       HAL2     0.900000E-01   1.00800           0   0.00000     -0.301140E-02
      6621 MEMB     55       PMPG     HB       HAL2     0.900000E-01   1.00800           0   0.00000     -0.301140E-02
      6622 MEMB     55       PMPG     C2       CTL1     0.170000       12.0110           0   0.00000     -0.301140E-02
      6623 MEMB     55       PMPG     HS       HAL1     0.900000E-01   1.00800           0   0.00000     -0.301140E-02
      6624 MEMB     55       PMPG     O21      OSL     -0.490000       15.9994           0   0.00000     -0.301140E-02
      6625 MEMB     55       PMPG     C21      CL       0.900000       12.0110           0   0.00000     -0.301140E-02
      6626 MEMB     55       PMPG     O22      OBL     -0.630000       15.9994           0   0.00000     -0.301140E-02
      6627 MEMB     55       PMPG     C22      CTL2    -0.220000       12.0110           0   0.00000     -0.301140E-02
      6628 MEMB     55       PMPG     H2R      HAL2     0.900000E-01   1.00800           0   0.00000     -0.301140E-02
      6629 MEMB     55       PMPG     H2S      HAL2     0.900000E-01   1.00800           0   0.00000     -0.301140E-02
      6630 MEMB     55       PMPG     C3       CTL2     0.800000E-01   12.0110           0   0.00000     -0.301140E-02
      6631 MEMB     55       PMPG     HX       HAL2     0.900000E-01   1.00800           0   0.00000     -0.301140E-02
      6632 MEMB     55       PMPG     HY       HAL2     0.900000E-01   1.00800           0   0.00000     -0.301140E-02
      6633 MEMB     55       PMPG     O31      OSL     -0.490000       15.9994           0   0.00000     -0.301140E-02
      6634 MEMB     55       PMPG     C31      CL       0.900000       12.0110           0   0.00000     -0.301140E-02
      6635 MEMB     55       PMPG     O32      OBL     -0.630000       15.9994           0   0.00000     -0.301140E-02
      6636 MEMB     55       PMPG     C32      CTL2    -0.220000       12.0110           0   0.00000     -0.301140E-02
      6637 MEMB     55       PMPG     H2X      HAL2     0.900000E-01   1.00800           0   0.00000     -0.301140E-02
      6638 MEMB     55       PMPG     H2Y      HAL2     0.900000E-01   1.00800           0   0.00000     -0.301140E-02
      6639 MEMB     55       PMPG     C23      CTL2    -0.180000       12.0110           0   0.00000     -0.301140E-02
      6640 MEMB     55       PMPG     H3R      HAL2     0.900000E-01   1.00800           0   0.00000     -0.301140E-02
      6641 MEMB     55       PMPG     H3S      HAL2     0.900000E-01   1.00800           0   0.00000     -0.301140E-02
      6642 MEMB     55       PMPG     C24      CTL2    -0.180000       12.0110           0   0.00000     -0.301140E-02
      6643 MEMB     55       PMPG     H4R      HAL2     0.900000E-01   1.00800           0   0.00000     -0.301140E-02
      6644 MEMB     55       PMPG     H4S      HAL2     0.900000E-01   1.00800           0   0.00000     -0.301140E-02
      6645 MEMB     55       PMPG     C25      CTL2    -0.180000       12.0110           0   0.00000     -0.301140E-02
      6646 MEMB     55       PMPG     H5R      HAL2     0.900000E-01   1.00800           0   0.00000     -0.301140E-02
      6647 MEMB     55       PMPG     H5S      HAL2     0.900000E-01   1.00800           0   0.00000     -0.301140E-02
      6648 MEMB     55       PMPG     C26      CTL2    -0.180000       12.0110           0   0.00000     -0.301140E-02
      6649 MEMB     55       PMPG     H6R      HAL2     0.900000E-01   1.00800           0   0.00000     -0.301140E-02
      6650 MEMB     55       PMPG     H6S      HAL2     0.900000E-01   1.00800           0   0.00000     -0.301140E-02
      6651 MEMB     55       PMPG     C27      CTL2    -0.180000       12.0110           0   0.00000     -0.301140E-02
      6652 MEMB     55       PMPG     H7R      HAL2     0.900000E-01   1.00800           0   0.00000     -0.301140E-02
      6653 MEMB     55       PMPG     H7S      HAL2     0.900000E-01   1.00800           0   0.00000     -0.301140E-02
      6654 MEMB     55       PMPG     C28      CTL2    -0.180000       12.0110           0   0.00000     -0.301140E-02
      6655 MEMB     55       PMPG     H8R      HAL2     0.900000E-01   1.00800           0   0.00000     -0.301140E-02
      6656 MEMB     55       PMPG     H8S      HAL2     0.900000E-01   1.00800           0   0.00000     -0.301140E-02
      6657 MEMB     55       PMPG     C29      CG3RC1  -0.900000E-01   12.0110           0   0.00000     -0.301140E-02
      6658 MEMB     55       PMPG     H9R      HGA1     0.900000E-01   1.00800           0   0.00000     -0.301140E-02
      6659 MEMB     55       PMPG     C217     CG3C31  -0.180000       12.0110           0   0.00000     -0.301140E-02
      6660 MEMB     55       PMPG     H17R     HGA2     0.900000E-01   1.00800           0   0.00000     -0.301140E-02
      6661 MEMB     55       PMPG     H17S     HGA2     0.900000E-01   1.00800           0   0.00000     -0.301140E-02
      6662 MEMB     55       PMPG     C210     CG3RC1  -0.900000E-01   12.0110           0   0.00000     -0.301140E-02
      6663 MEMB     55       PMPG     H10R     HGA1     0.900000E-01   1.00800           0   0.00000     -0.301140E-02
      6664 MEMB     55       PMPG     C211     CTL2    -0.180000       12.0110           0   0.00000     -0.301140E-02
      6665 MEMB     55       PMPG     H11R     HAL2     0.900000E-01   1.00800           0   0.00000     -0.301140E-02
      6666 MEMB     55       PMPG     H11S     HAL2     0.900000E-01   1.00800           0   0.00000     -0.301140E-02
      6667 MEMB     55       PMPG     C212     CTL2    -0.180000       12.0110           0   0.00000     -0.301140E-02
      6668 MEMB     55       PMPG     H12R     HAL2     0.900000E-01   1.00800           0   0.00000     -0.301140E-02
      6669 MEMB     55       PMPG     H12S     HAL2     0.900000E-01   1.00800           0   0.00000     -0.301140E-02
      6670 MEMB     55       PMPG     C213     CTL2    -0.180000       12.0110           0   0.00000     -0.301140E-02
      6671 MEMB     55       PMPG     H13R     HAL2     0.900000E-01   1.00800           0   0.00000     -0.301140E-02
      6672 MEMB     55       PMPG     H13S     HAL2     0.900000E-01   1.00800           0   0.00000     -0.301140E-02
      6673 MEMB     55       PMPG     C214     CTL2    -0.180000       12.0110           0   0.00000     -0.301140E-02
      6674 MEMB     55       PMPG     H14R     HAL2     0.900000E-01   1.00800           0   0.00000     -0.301140E-02
      6675 MEMB     55       PMPG     H14S     HAL2     0.900000E-01   1.00800           0   0.00000     -0.301140E-02
      6676 MEMB     55       PMPG     C215     CTL2    -0.180000       12.0110           0   0.00000     -0.301140E-02
      6677 MEMB     55       PMPG     H15R     HAL2     0.900000E-01   1.00800           0   0.00000     -0.301140E-02
      6678 MEMB     55       PMPG     H15S     HAL2     0.900000E-01   1.00800           0   0.00000     -0.301140E-02
      6679 MEMB     55       PMPG     C216     CTL3    -0.270000       12.0110           0   0.00000     -0.301140E-02
      6680 MEMB     55       PMPG     H16R     HAL3     0.900000E-01   1.00800           0   0.00000     -0.301140E-02
      6681 MEMB     55       PMPG     H16S     HAL3     0.900000E-01   1.00800           0   0.00000     -0.301140E-02
      6682 MEMB     55       PMPG     H16T     HAL3     0.900000E-01   1.00800           0   0.00000     -0.301140E-02
      6683 MEMB     55       PMPG     C33      CTL2    -0.180000       12.0110           0   0.00000     -0.301140E-02
      6684 MEMB     55       PMPG     H3X      HAL2     0.900000E-01   1.00800           0   0.00000     -0.301140E-02
      6685 MEMB     55       PMPG     H3Y      HAL2     0.900000E-01   1.00800           0   0.00000     -0.301140E-02
      6686 MEMB     55       PMPG     C34      CTL2    -0.180000       12.0110           0   0.00000     -0.301140E-02
      6687 MEMB     55       PMPG     H4X      HAL2     0.900000E-01   1.00800           0   0.00000     -0.301140E-02
      6688 MEMB     55       PMPG     H4Y      HAL2     0.900000E-01   1.00800           0   0.00000     -0.301140E-02
      6689 MEMB     55       PMPG     C35      CTL2    -0.180000       12.0110           0   0.00000     -0.301140E-02
      6690 MEMB     55       PMPG     H5X      HAL2     0.900000E-01   1.00800           0   0.00000     -0.301140E-02
      6691 MEMB     55       PMPG     H5Y      HAL2     0.900000E-01   1.00800           0   0.00000     -0.301140E-02
      6692 MEMB     55       PMPG     C36      CTL2    -0.180000       12.0110           0   0.00000     -0.301140E-02
      6693 MEMB     55       PMPG     H6X      HAL2     0.900000E-01   1.00800           0   0.00000     -0.301140E-02
      6694 MEMB     55       PMPG     H6Y      HAL2     0.900000E-01   1.00800           0   0.00000     -0.301140E-02
      6695 MEMB     55       PMPG     C37      CTL2    -0.180000       12.0110           0   0.00000     -0.301140E-02
      6696 MEMB     55       PMPG     H7X      HAL2     0.900000E-01   1.00800           0   0.00000     -0.301140E-02
      6697 MEMB     55       PMPG     H7Y      HAL2     0.900000E-01   1.00800           0   0.00000     -0.301140E-02
      6698 MEMB     55       PMPG     C38      CTL2    -0.180000       12.0110           0   0.00000     -0.301140E-02
      6699 MEMB     55       PMPG     H8X      HAL2     0.900000E-01   1.00800           0   0.00000     -0.301140E-02
      6700 MEMB     55       PMPG     H8Y      HAL2     0.900000E-01   1.00800           0   0.00000     -0.301140E-02
      6701 MEMB     55       PMPG     C39      CTL2    -0.180000       12.0110           0   0.00000     -0.301140E-02
      6702 MEMB     55       PMPG     H9X      HAL2     0.900000E-01   1.00800           0   0.00000     -0.301140E-02
      6703 MEMB     55       PMPG     H9Y      HAL2     0.900000E-01   1.00800           0   0.00000     -0.301140E-02
      6704 MEMB     55       PMPG     C310     CTL2    -0.180000       12.0110           0   0.00000     -0.301140E-02
      6705 MEMB     55       PMPG     H10X     HAL2     0.900000E-01   1.00800           0   0.00000     -0.301140E-02
      6706 MEMB     55       PMPG     H10Y     HAL2     0.900000E-01   1.00800           0   0.00000     -0.301140E-02
      6707 MEMB     55       PMPG     C311     CTL2    -0.180000       12.0110           0   0.00000     -0.301140E-02
      6708 MEMB     55       PMPG     H11X     HAL2     0.900000E-01   1.00800           0   0.00000     -0.301140E-02
      6709 MEMB     55       PMPG     H11Y     HAL2     0.900000E-01   1.00800           0   0.00000     -0.301140E-02
      6710 MEMB     55       PMPG     C312     CTL2    -0.180000       12.0110           0   0.00000     -0.301140E-02
      6711 MEMB     55       PMPG     H12X     HAL2     0.900000E-01   1.00800           0   0.00000     -0.301140E-02
      6712 MEMB     55       PMPG     H12Y     HAL2     0.900000E-01   1.00800           0   0.00000     -0.301140E-02
      6713 MEMB     55       PMPG     C313     CTL2    -0.180000       12.0110           0   0.00000     -0.301140E-02
      6714 MEMB     55       PMPG     H13X     HAL2     0.900000E-01   1.00800           0   0.00000     -0.301140E-02
      6715 MEMB     55       PMPG     H13Y     HAL2     0.900000E-01   1.00800           0   0.00000     -0.301140E-02
      6716 MEMB     55       PMPG     C314     CTL2    -0.180000       12.0110           0   0.00000     -0.301140E-02
      6717 MEMB     55       PMPG     H14X     HAL2     0.900000E-01   1.00800           0   0.00000     -0.301140E-02
      6718 MEMB     55       PMPG     H14Y     HAL2     0.900000E-01   1.00800           0   0.00000     -0.301140E-02
      6719 MEMB     55       PMPG     C315     CTL2    -0.180000       12.0110           0   0.00000     -0.301140E-02
      6720 MEMB     55       PMPG     H15X     HAL2     0.900000E-01   1.00800           0   0.00000     -0.301140E-02
      6721 MEMB     55       PMPG     H15Y     HAL2     0.900000E-01   1.00800           0   0.00000     -0.301140E-02
      6722 MEMB     55       PMPG     C316     CTL3    -0.270000       12.0110           0   0.00000     -0.301140E-02
      6723 MEMB     55       PMPG     H16X     HAL3     0.900000E-01   1.00800           0   0.00000     -0.301140E-02
      6724 MEMB     55       PMPG     H16Y     HAL3     0.900000E-01   1.00800           0   0.00000     -0.301140E-02
      6725 MEMB     55       PMPG     H16Z     HAL3     0.900000E-01   1.00800           0   0.00000     -0.301140E-02
      6726 MEMB     56       QMPE     N        NH3L    -0.300000       14.0070           0   0.00000     -0.301140E-02
      6727 MEMB     56       QMPE     HN1      HCL      0.330000       1.00800           0   0.00000     -0.301140E-02
      6728 MEMB     56       QMPE     HN2      HCL      0.330000       1.00800           0   0.00000     -0.301140E-02
      6729 MEMB     56       QMPE     HN3      HCL      0.330000       1.00800           0   0.00000     -0.301140E-02
      6730 MEMB     56       QMPE     C12      CTL2     0.130000       12.0110           0   0.00000     -0.301140E-02
      6731 MEMB     56       QMPE     H12A     HAL2     0.900000E-01   1.00800           0   0.00000     -0.301140E-02
      6732 MEMB     56       QMPE     H12B     HAL2     0.900000E-01   1.00800           0   0.00000     -0.301140E-02
      6733 MEMB     56       QMPE     C11      CTL2    -0.800000E-01   12.0110           0   0.00000     -0.301140E-02
      6734 MEMB     56       QMPE     H11A     HAL2     0.900000E-01   1.00800           0   0.00000     -0.301140E-02
      6735 MEMB     56       QMPE     H11B     HAL2     0.900000E-01   1.00800           0   0.00000     -0.301140E-02
      6736 MEMB     56       QMPE     P        PL        1.50000       30.9740           0   0.00000     -0.301140E-02
      6737 MEMB     56       QMPE     O13      O2L     -0.780000       15.9994           0   0.00000     -0.301140E-02
      6738 MEMB     56       QMPE     O14      O2L     -0.780000       15.9994           0   0.00000     -0.301140E-02
      6739 MEMB     56       QMPE     O11      OSLP    -0.570000       15.9994           0   0.00000     -0.301140E-02
      6740 MEMB     56       QMPE     O12      OSLP    -0.570000       15.9994           0   0.00000     -0.301140E-02
      6741 MEMB     56       QMPE     C1       CTL2    -0.800000E-01   12.0110           0   0.00000     -0.301140E-02
      6742 MEMB     56       QMPE     HA       HAL2     0.900000E-01   1.00800           0   0.00000     -0.301140E-02
      6743 MEMB     56       QMPE     HB       HAL2     0.900000E-01   1.00800           0   0.00000     -0.301140E-02
      6744 MEMB     56       QMPE     C2       CTL1     0.170000       12.0110           0   0.00000     -0.301140E-02
      6745 MEMB     56       QMPE     HS       HAL1     0.900000E-01   1.00800           0   0.00000     -0.301140E-02
      6746 MEMB     56       QMPE     O21      OSL     -0.490000       15.9994           0   0.00000     -0.301140E-02
      6747 MEMB     56       QMPE     C21      CL       0.900000       12.0110           0   0.00000     -0.301140E-02
      6748 MEMB     56       QMPE     O22      OBL     -0.630000       15.9994           0   0.00000     -0.301140E-02
      6749 MEMB     56       QMPE     C22      CTL2    -0.220000       12.0110           0   0.00000     -0.301140E-02
      6750 MEMB     56       QMPE     H2R      HAL2     0.900000E-01   1.00800           0   0.00000     -0.301140E-02
      6751 MEMB     56       QMPE     H2S      HAL2     0.900000E-01   1.00800           0   0.00000     -0.301140E-02
      6752 MEMB     56       QMPE     C3       CTL2     0.800000E-01   12.0110           0   0.00000     -0.301140E-02
      6753 MEMB     56       QMPE     HX       HAL2     0.900000E-01   1.00800           0   0.00000     -0.301140E-02
      6754 MEMB     56       QMPE     HY       HAL2     0.900000E-01   1.00800           0   0.00000     -0.301140E-02
      6755 MEMB     56       QMPE     O31      OSL     -0.490000       15.9994           0   0.00000     -0.301140E-02
      6756 MEMB     56       QMPE     C31      CL       0.900000       12.0110           0   0.00000     -0.301140E-02
      6757 MEMB     56       QMPE     O32      OBL     -0.630000       15.9994           0   0.00000     -0.301140E-02
      6758 MEMB     56       QMPE     C32      CTL2    -0.220000       12.0110           0   0.00000     -0.301140E-02
      6759 MEMB     56       QMPE     H2X      HAL2     0.900000E-01   1.00800           0   0.00000     -0.301140E-02
      6760 MEMB     56       QMPE     H2Y      HAL2     0.900000E-01   1.00800           0   0.00000     -0.301140E-02
      6761 MEMB     56       QMPE     C23      CTL2    -0.180000       12.0110           0   0.00000     -0.301140E-02
      6762 MEMB     56       QMPE     H3R      HAL2     0.900000E-01   1.00800           0   0.00000     -0.301140E-02
      6763 MEMB     56       QMPE     H3S      HAL2     0.900000E-01   1.00800           0   0.00000     -0.301140E-02
      6764 MEMB     56       QMPE     C24      CTL2    -0.180000       12.0110           0   0.00000     -0.301140E-02
      6765 MEMB     56       QMPE     H4R      HAL2     0.900000E-01   1.00800           0   0.00000     -0.301140E-02
      6766 MEMB     56       QMPE     H4S      HAL2     0.900000E-01   1.00800           0   0.00000     -0.301140E-02
      6767 MEMB     56       QMPE     C25      CTL2    -0.180000       12.0110           0   0.00000     -0.301140E-02
      6768 MEMB     56       QMPE     H5R      HAL2     0.900000E-01   1.00800           0   0.00000     -0.301140E-02
      6769 MEMB     56       QMPE     H5S      HAL2     0.900000E-01   1.00800           0   0.00000     -0.301140E-02
      6770 MEMB     56       QMPE     C26      CTL2    -0.180000       12.0110           0   0.00000     -0.301140E-02
      6771 MEMB     56       QMPE     H6R      HAL2     0.900000E-01   1.00800           0   0.00000     -0.301140E-02
      6772 MEMB     56       QMPE     H6S      HAL2     0.900000E-01   1.00800           0   0.00000     -0.301140E-02
      6773 MEMB     56       QMPE     C27      CTL2    -0.180000       12.0110           0   0.00000     -0.301140E-02
      6774 MEMB     56       QMPE     H7R      HAL2     0.900000E-01   1.00800           0   0.00000     -0.301140E-02
      6775 MEMB     56       QMPE     H7S      HAL2     0.900000E-01   1.00800           0   0.00000     -0.301140E-02
      6776 MEMB     56       QMPE     C28      CTL2    -0.180000       12.0110           0   0.00000     -0.301140E-02
      6777 MEMB     56       QMPE     H8R      HAL2     0.900000E-01   1.00800           0   0.00000     -0.301140E-02
      6778 MEMB     56       QMPE     H8S      HAL2     0.900000E-01   1.00800           0   0.00000     -0.301140E-02
      6779 MEMB     56       QMPE     C29      CG3RC1  -0.900000E-01   12.0110           0   0.00000     -0.301140E-02
      6780 MEMB     56       QMPE     H9R      HGA1     0.900000E-01   1.00800           0   0.00000     -0.301140E-02
      6781 MEMB     56       QMPE     C217     CG3C31  -0.180000       12.0110           0   0.00000     -0.301140E-02
      6782 MEMB     56       QMPE     H17R     HGA2     0.900000E-01   1.00800           0   0.00000     -0.301140E-02
      6783 MEMB     56       QMPE     H17S     HGA2     0.900000E-01   1.00800           0   0.00000     -0.301140E-02
      6784 MEMB     56       QMPE     C210     CG3RC1  -0.900000E-01   12.0110           0   0.00000     -0.301140E-02
      6785 MEMB     56       QMPE     H10R     HGA1     0.900000E-01   1.00800           0   0.00000     -0.301140E-02
      6786 MEMB     56       QMPE     C211     CTL2    -0.180000       12.0110           0   0.00000     -0.301140E-02
      6787 MEMB     56       QMPE     H11R     HAL2     0.900000E-01   1.00800           0   0.00000     -0.301140E-02
      6788 MEMB     56       QMPE     H11S     HAL2     0.900000E-01   1.00800           0   0.00000     -0.301140E-02
      6789 MEMB     56       QMPE     C212     CTL2    -0.180000       12.0110           0   0.00000     -0.301140E-02
      6790 MEMB     56       QMPE     H12R     HAL2     0.900000E-01   1.00800           0   0.00000     -0.301140E-02
      6791 MEMB     56       QMPE     H12S     HAL2     0.900000E-01   1.00800           0   0.00000     -0.301140E-02
      6792 MEMB     56       QMPE     C213     CTL2    -0.180000       12.0110           0   0.00000     -0.301140E-02
      6793 MEMB     56       QMPE     H13R     HAL2     0.900000E-01   1.00800           0   0.00000     -0.301140E-02
      6794 MEMB     56       QMPE     H13S     HAL2     0.900000E-01   1.00800           0   0.00000     -0.301140E-02
      6795 MEMB     56       QMPE     C214     CTL2    -0.180000       12.0110           0   0.00000     -0.301140E-02
      6796 MEMB     56       QMPE     H14R     HAL2     0.900000E-01   1.00800           0   0.00000     -0.301140E-02
      6797 MEMB     56       QMPE     H14S     HAL2     0.900000E-01   1.00800           0   0.00000     -0.301140E-02
      6798 MEMB     56       QMPE     C215     CTL2    -0.180000       12.0110           0   0.00000     -0.301140E-02
      6799 MEMB     56       QMPE     H15R     HAL2     0.900000E-01   1.00800           0   0.00000     -0.301140E-02
      6800 MEMB     56       QMPE     H15S     HAL2     0.900000E-01   1.00800           0   0.00000     -0.301140E-02
      6801 MEMB     56       QMPE     C216     CTL3    -0.270000       12.0110           0   0.00000     -0.301140E-02
      6802 MEMB     56       QMPE     H16R     HAL3     0.900000E-01   1.00800           0   0.00000     -0.301140E-02
      6803 MEMB     56       QMPE     H16S     HAL3     0.900000E-01   1.00800           0   0.00000     -0.301140E-02
      6804 MEMB     56       QMPE     H16T     HAL3     0.900000E-01   1.00800           0   0.00000     -0.301140E-02
      6805 MEMB     56       QMPE     C33      CTL2    -0.180000       12.0110           0   0.00000     -0.301140E-02
      6806 MEMB     56       QMPE     H3X      HAL2     0.900000E-01   1.00800           0   0.00000     -0.301140E-02
      6807 MEMB     56       QMPE     H3Y      HAL2     0.900000E-01   1.00800           0   0.00000     -0.301140E-02
      6808 MEMB     56       QMPE     C34      CTL2    -0.180000       12.0110           0   0.00000     -0.301140E-02
      6809 MEMB     56       QMPE     H4X      HAL2     0.900000E-01   1.00800           0   0.00000     -0.301140E-02
      6810 MEMB     56       QMPE     H4Y      HAL2     0.900000E-01   1.00800           0   0.00000     -0.301140E-02
      6811 MEMB     56       QMPE     C35      CTL2    -0.180000       12.0110           0   0.00000     -0.301140E-02
      6812 MEMB     56       QMPE     H5X      HAL2     0.900000E-01   1.00800           0   0.00000     -0.301140E-02
      6813 MEMB     56       QMPE     H5Y      HAL2     0.900000E-01   1.00800           0   0.00000     -0.301140E-02
      6814 MEMB     56       QMPE     C36      CTL2    -0.180000       12.0110           0   0.00000     -0.301140E-02
      6815 MEMB     56       QMPE     H6X      HAL2     0.900000E-01   1.00800           0   0.00000     -0.301140E-02
      6816 MEMB     56       QMPE     H6Y      HAL2     0.900000E-01   1.00800           0   0.00000     -0.301140E-02
      6817 MEMB     56       QMPE     C37      CTL2    -0.180000       12.0110           0   0.00000     -0.301140E-02
      6818 MEMB     56       QMPE     H7X      HAL2     0.900000E-01   1.00800           0   0.00000     -0.301140E-02
      6819 MEMB     56       QMPE     H7Y      HAL2     0.900000E-01   1.00800           0   0.00000     -0.301140E-02
      6820 MEMB     56       QMPE     C38      CTL2    -0.180000       12.0110           0   0.00000     -0.301140E-02
      6821 MEMB     56       QMPE     H8X      HAL2     0.900000E-01   1.00800           0   0.00000     -0.301140E-02
      6822 MEMB     56       QMPE     H8Y      HAL2     0.900000E-01   1.00800           0   0.00000     -0.301140E-02
      6823 MEMB     56       QMPE     C39      CTL2    -0.180000       12.0110           0   0.00000     -0.301140E-02
      6824 MEMB     56       QMPE     H9X      HAL2     0.900000E-01   1.00800           0   0.00000     -0.301140E-02
      6825 MEMB     56       QMPE     H9Y      HAL2     0.900000E-01   1.00800           0   0.00000     -0.301140E-02
      6826 MEMB     56       QMPE     C310     CTL2    -0.180000       12.0110           0   0.00000     -0.301140E-02
      6827 MEMB     56       QMPE     H10X     HAL2     0.900000E-01   1.00800           0   0.00000     -0.301140E-02
      6828 MEMB     56       QMPE     H10Y     HAL2     0.900000E-01   1.00800           0   0.00000     -0.301140E-02
      6829 MEMB     56       QMPE     C311     CTL2    -0.180000       12.0110           0   0.00000     -0.301140E-02
      6830 MEMB     56       QMPE     H11X     HAL2     0.900000E-01   1.00800           0   0.00000     -0.301140E-02
      6831 MEMB     56       QMPE     H11Y     HAL2     0.900000E-01   1.00800           0   0.00000     -0.301140E-02
      6832 MEMB     56       QMPE     C312     CTL2    -0.180000       12.0110           0   0.00000     -0.301140E-02
      6833 MEMB     56       QMPE     H12X     HAL2     0.900000E-01   1.00800           0   0.00000     -0.301140E-02
      6834 MEMB     56       QMPE     H12Y     HAL2     0.900000E-01   1.00800           0   0.00000     -0.301140E-02
      6835 MEMB     56       QMPE     C313     CTL2    -0.180000       12.0110           0   0.00000     -0.301140E-02
      6836 MEMB     56       QMPE     H13X     HAL2     0.900000E-01   1.00800           0   0.00000     -0.301140E-02
      6837 MEMB     56       QMPE     H13Y     HAL2     0.900000E-01   1.00800           0   0.00000     -0.301140E-02
      6838 MEMB     56       QMPE     C314     CTL2    -0.180000       12.0110           0   0.00000     -0.301140E-02
      6839 MEMB     56       QMPE     H14X     HAL2     0.900000E-01   1.00800           0   0.00000     -0.301140E-02
      6840 MEMB     56       QMPE     H14Y     HAL2     0.900000E-01   1.00800           0   0.00000     -0.301140E-02
      6841 MEMB     56       QMPE     C315     CTL3    -0.270000       12.0110           0   0.00000     -0.301140E-02
      6842 MEMB     56       QMPE     H15X     HAL3     0.900000E-01   1.00800           0   0.00000     -0.301140E-02
      6843 MEMB     56       QMPE     H15Y     HAL3     0.900000E-01   1.00800           0   0.00000     -0.301140E-02
      6844 MEMB     56       QMPE     H15Z     HAL3     0.900000E-01   1.00800           0   0.00000     -0.301140E-02
      6845 MEMB     57       PMPE     N        NH3L    -0.300000       14.0070           0   0.00000     -0.301140E-02
      6846 MEMB     57       PMPE     HN1      HCL      0.330000       1.00800           0   0.00000     -0.301140E-02
      6847 MEMB     57       PMPE     HN2      HCL      0.330000       1.00800           0   0.00000     -0.301140E-02
      6848 MEMB     57       PMPE     HN3      HCL      0.330000       1.00800           0   0.00000     -0.301140E-02
      6849 MEMB     57       PMPE     C12      CTL2     0.130000       12.0110           0   0.00000     -0.301140E-02
      6850 MEMB     57       PMPE     H12A     HAL2     0.900000E-01   1.00800           0   0.00000     -0.301140E-02
      6851 MEMB     57       PMPE     H12B     HAL2     0.900000E-01   1.00800           0   0.00000     -0.301140E-02
      6852 MEMB     57       PMPE     C11      CTL2    -0.800000E-01   12.0110           0   0.00000     -0.301140E-02
      6853 MEMB     57       PMPE     H11A     HAL2     0.900000E-01   1.00800           0   0.00000     -0.301140E-02
      6854 MEMB     57       PMPE     H11B     HAL2     0.900000E-01   1.00800           0   0.00000     -0.301140E-02
      6855 MEMB     57       PMPE     P        PL        1.50000       30.9740           0   0.00000     -0.301140E-02
      6856 MEMB     57       PMPE     O13      O2L     -0.780000       15.9994           0   0.00000     -0.301140E-02
      6857 MEMB     57       PMPE     O14      O2L     -0.780000       15.9994           0   0.00000     -0.301140E-02
      6858 MEMB     57       PMPE     O11      OSLP    -0.570000       15.9994           0   0.00000     -0.301140E-02
      6859 MEMB     57       PMPE     O12      OSLP    -0.570000       15.9994           0   0.00000     -0.301140E-02
      6860 MEMB     57       PMPE     C1       CTL2    -0.800000E-01   12.0110           0   0.00000     -0.301140E-02
      6861 MEMB     57       PMPE     HA       HAL2     0.900000E-01   1.00800           0   0.00000     -0.301140E-02
      6862 MEMB     57       PMPE     HB       HAL2     0.900000E-01   1.00800           0   0.00000     -0.301140E-02
      6863 MEMB     57       PMPE     C2       CTL1     0.170000       12.0110           0   0.00000     -0.301140E-02
      6864 MEMB     57       PMPE     HS       HAL1     0.900000E-01   1.00800           0   0.00000     -0.301140E-02
      6865 MEMB     57       PMPE     O21      OSL     -0.490000       15.9994           0   0.00000     -0.301140E-02
      6866 MEMB     57       PMPE     C21      CL       0.900000       12.0110           0   0.00000     -0.301140E-02
      6867 MEMB     57       PMPE     O22      OBL     -0.630000       15.9994           0   0.00000     -0.301140E-02
      6868 MEMB     57       PMPE     C22      CTL2    -0.220000       12.0110           0   0.00000     -0.301140E-02
      6869 MEMB     57       PMPE     H2R      HAL2     0.900000E-01   1.00800           0   0.00000     -0.301140E-02
      6870 MEMB     57       PMPE     H2S      HAL2     0.900000E-01   1.00800           0   0.00000     -0.301140E-02
      6871 MEMB     57       PMPE     C3       CTL2     0.800000E-01   12.0110           0   0.00000     -0.301140E-02
      6872 MEMB     57       PMPE     HX       HAL2     0.900000E-01   1.00800           0   0.00000     -0.301140E-02
      6873 MEMB     57       PMPE     HY       HAL2     0.900000E-01   1.00800           0   0.00000     -0.301140E-02
      6874 MEMB     57       PMPE     O31      OSL     -0.490000       15.9994           0   0.00000     -0.301140E-02
      6875 MEMB     57       PMPE     C31      CL       0.900000       12.0110           0   0.00000     -0.301140E-02
      6876 MEMB     57       PMPE     O32      OBL     -0.630000       15.9994           0   0.00000     -0.301140E-02
      6877 MEMB     57       PMPE     C32      CTL2    -0.220000       12.0110           0   0.00000     -0.301140E-02
      6878 MEMB     57       PMPE     H2X      HAL2     0.900000E-01   1.00800           0   0.00000     -0.301140E-02
      6879 MEMB     57       PMPE     H2Y      HAL2     0.900000E-01   1.00800           0   0.00000     -0.301140E-02
      6880 MEMB     57       PMPE     C23      CTL2    -0.180000       12.0110           0   0.00000     -0.301140E-02
      6881 MEMB     57       PMPE     H3R      HAL2     0.900000E-01   1.00800           0   0.00000     -0.301140E-02
      6882 MEMB     57       PMPE     H3S      HAL2     0.900000E-01   1.00800           0   0.00000     -0.301140E-02
      6883 MEMB     57       PMPE     C24      CTL2    -0.180000       12.0110           0   0.00000     -0.301140E-02
      6884 MEMB     57       PMPE     H4R      HAL2     0.900000E-01   1.00800           0   0.00000     -0.301140E-02
      6885 MEMB     57       PMPE     H4S      HAL2     0.900000E-01   1.00800           0   0.00000     -0.301140E-02
      6886 MEMB     57       PMPE     C25      CTL2    -0.180000       12.0110           0   0.00000     -0.301140E-02
      6887 MEMB     57       PMPE     H5R      HAL2     0.900000E-01   1.00800           0   0.00000     -0.301140E-02
      6888 MEMB     57       PMPE     H5S      HAL2     0.900000E-01   1.00800           0   0.00000     -0.301140E-02
      6889 MEMB     57       PMPE     C26      CTL2    -0.180000       12.0110           0   0.00000     -0.301140E-02
      6890 MEMB     57       PMPE     H6R      HAL2     0.900000E-01   1.00800           0   0.00000     -0.301140E-02
      6891 MEMB     57       PMPE     H6S      HAL2     0.900000E-01   1.00800           0   0.00000     -0.301140E-02
      6892 MEMB     57       PMPE     C27      CTL2    -0.180000       12.0110           0   0.00000     -0.301140E-02
      6893 MEMB     57       PMPE     H7R      HAL2     0.900000E-01   1.00800           0   0.00000     -0.301140E-02
      6894 MEMB     57       PMPE     H7S      HAL2     0.900000E-01   1.00800           0   0.00000     -0.301140E-02
      6895 MEMB     57       PMPE     C28      CTL2    -0.180000       12.0110           0   0.00000     -0.301140E-02
      6896 MEMB     57       PMPE     H8R      HAL2     0.900000E-01   1.00800           0   0.00000     -0.301140E-02
      6897 MEMB     57       PMPE     H8S      HAL2     0.900000E-01   1.00800           0   0.00000     -0.301140E-02
      6898 MEMB     57       PMPE     C29      CG3RC1  -0.900000E-01   12.0110           0   0.00000     -0.301140E-02
      6899 MEMB     57       PMPE     H9R      HGA1     0.900000E-01   1.00800           0   0.00000     -0.301140E-02
      6900 MEMB     57       PMPE     C217     CG3C31  -0.180000       12.0110           0   0.00000     -0.301140E-02
      6901 MEMB     57       PMPE     H17R     HGA2     0.900000E-01   1.00800           0   0.00000     -0.301140E-02
      6902 MEMB     57       PMPE     H17S     HGA2     0.900000E-01   1.00800           0   0.00000     -0.301140E-02
      6903 MEMB     57       PMPE     C210     CG3RC1  -0.900000E-01   12.0110           0   0.00000     -0.301140E-02
      6904 MEMB     57       PMPE     H10R     HGA1     0.900000E-01   1.00800           0   0.00000     -0.301140E-02
      6905 MEMB     57       PMPE     C211     CTL2    -0.180000       12.0110           0   0.00000     -0.301140E-02
      6906 MEMB     57       PMPE     H11R     HAL2     0.900000E-01   1.00800           0   0.00000     -0.301140E-02
      6907 MEMB     57       PMPE     H11S     HAL2     0.900000E-01   1.00800           0   0.00000     -0.301140E-02
      6908 MEMB     57       PMPE     C212     CTL2    -0.180000       12.0110           0   0.00000     -0.301140E-02
      6909 MEMB     57       PMPE     H12R     HAL2     0.900000E-01   1.00800           0   0.00000     -0.301140E-02
      6910 MEMB     57       PMPE     H12S     HAL2     0.900000E-01   1.00800           0   0.00000     -0.301140E-02
      6911 MEMB     57       PMPE     C213     CTL2    -0.180000       12.0110           0   0.00000     -0.301140E-02
      6912 MEMB     57       PMPE     H13R     HAL2     0.900000E-01   1.00800           0   0.00000     -0.301140E-02
      6913 MEMB     57       PMPE     H13S     HAL2     0.900000E-01   1.00800           0   0.00000     -0.301140E-02
      6914 MEMB     57       PMPE     C214     CTL2    -0.180000       12.0110           0   0.00000     -0.301140E-02
      6915 MEMB     57       PMPE     H14R     HAL2     0.900000E-01   1.00800           0   0.00000     -0.301140E-02
      6916 MEMB     57       PMPE     H14S     HAL2     0.900000E-01   1.00800           0   0.00000     -0.301140E-02
      6917 MEMB     57       PMPE     C215     CTL2    -0.180000       12.0110           0   0.00000     -0.301140E-02
      6918 MEMB     57       PMPE     H15R     HAL2     0.900000E-01   1.00800           0   0.00000     -0.301140E-02
      6919 MEMB     57       PMPE     H15S     HAL2     0.900000E-01   1.00800           0   0.00000     -0.301140E-02
      6920 MEMB     57       PMPE     C216     CTL3    -0.270000       12.0110           0   0.00000     -0.301140E-02
      6921 MEMB     57       PMPE     H16R     HAL3     0.900000E-01   1.00800           0   0.00000     -0.301140E-02
      6922 MEMB     57       PMPE     H16S     HAL3     0.900000E-01   1.00800           0   0.00000     -0.301140E-02
      6923 MEMB     57       PMPE     H16T     HAL3     0.900000E-01   1.00800           0   0.00000     -0.301140E-02
      6924 MEMB     57       PMPE     C33      CTL2    -0.180000       12.0110           0   0.00000     -0.301140E-02
      6925 MEMB     57       PMPE     H3X      HAL2     0.900000E-01   1.00800           0   0.00000     -0.301140E-02
      6926 MEMB     57       PMPE     H3Y      HAL2     0.900000E-01   1.00800           0   0.00000     -0.301140E-02
      6927 MEMB     57       PMPE     C34      CTL2    -0.180000       12.0110           0   0.00000     -0.301140E-02
      6928 MEMB     57       PMPE     H4X      HAL2     0.900000E-01   1.00800           0   0.00000     -0.301140E-02
      6929 MEMB     57       PMPE     H4Y      HAL2     0.900000E-01   1.00800           0   0.00000     -0.301140E-02
      6930 MEMB     57       PMPE     C35      CTL2    -0.180000       12.0110           0   0.00000     -0.301140E-02
      6931 MEMB     57       PMPE     H5X      HAL2     0.900000E-01   1.00800           0   0.00000     -0.301140E-02
      6932 MEMB     57       PMPE     H5Y      HAL2     0.900000E-01   1.00800           0   0.00000     -0.301140E-02
      6933 MEMB     57       PMPE     C36      CTL2    -0.180000       12.0110           0   0.00000     -0.301140E-02
      6934 MEMB     57       PMPE     H6X      HAL2     0.900000E-01   1.00800           0   0.00000     -0.301140E-02
      6935 MEMB     57       PMPE     H6Y      HAL2     0.900000E-01   1.00800           0   0.00000     -0.301140E-02
      6936 MEMB     57       PMPE     C37      CTL2    -0.180000       12.0110           0   0.00000     -0.301140E-02
      6937 MEMB     57       PMPE     H7X      HAL2     0.900000E-01   1.00800           0   0.00000     -0.301140E-02
      6938 MEMB     57       PMPE     H7Y      HAL2     0.900000E-01   1.00800           0   0.00000     -0.301140E-02
      6939 MEMB     57       PMPE     C38      CTL2    -0.180000       12.0110           0   0.00000     -0.301140E-02
      6940 MEMB     57       PMPE     H8X      HAL2     0.900000E-01   1.00800           0   0.00000     -0.301140E-02
      6941 MEMB     57       PMPE     H8Y      HAL2     0.900000E-01   1.00800           0   0.00000     -0.301140E-02
      6942 MEMB     57       PMPE     C39      CTL2    -0.180000       12.0110           0   0.00000     -0.301140E-02
      6943 MEMB     57       PMPE     H9X      HAL2     0.900000E-01   1.00800           0   0.00000     -0.301140E-02
      6944 MEMB     57       PMPE     H9Y      HAL2     0.900000E-01   1.00800           0   0.00000     -0.301140E-02
      6945 MEMB     57       PMPE     C310     CTL2    -0.180000       12.0110           0   0.00000     -0.301140E-02
      6946 MEMB     57       PMPE     H10X     HAL2     0.900000E-01   1.00800           0   0.00000     -0.301140E-02
      6947 MEMB     57       PMPE     H10Y     HAL2     0.900000E-01   1.00800           0   0.00000     -0.301140E-02
      6948 MEMB     57       PMPE     C311     CTL2    -0.180000       12.0110           0   0.00000     -0.301140E-02
      6949 MEMB     57       PMPE     H11X     HAL2     0.900000E-01   1.00800           0   0.00000     -0.301140E-02
      6950 MEMB     57       PMPE     H11Y     HAL2     0.900000E-01   1.00800           0   0.00000     -0.301140E-02
      6951 MEMB     57       PMPE     C312     CTL2    -0.180000       12.0110           0   0.00000     -0.301140E-02
      6952 MEMB     57       PMPE     H12X     HAL2     0.900000E-01   1.00800           0   0.00000     -0.301140E-02
      6953 MEMB     57       PMPE     H12Y     HAL2     0.900000E-01   1.00800           0   0.00000     -0.301140E-02
      6954 MEMB     57       PMPE     C313     CTL2    -0.180000       12.0110           0   0.00000     -0.301140E-02
      6955 MEMB     57       PMPE     H13X     HAL2     0.900000E-01   1.00800           0   0.00000     -0.301140E-02
      6956 MEMB     57       PMPE     H13Y     HAL2     0.900000E-01   1.00800           0   0.00000     -0.301140E-02
      6957 MEMB     57       PMPE     C314     CTL2    -0.180000       12.0110           0   0.00000     -0.301140E-02
      6958 MEMB     57       PMPE     H14X     HAL2     0.900000E-01   1.00800           0   0.00000     -0.301140E-02
      6959 MEMB     57       PMPE     H14Y     HAL2     0.900000E-01   1.00800           0   0.00000     -0.301140E-02
      6960 MEMB     57       PMPE     C315     CTL2    -0.180000       12.0110           0   0.00000     -0.301140E-02
      6961 MEMB     57       PMPE     H15X     HAL2     0.900000E-01   1.00800           0   0.00000     -0.301140E-02
      6962 MEMB     57       PMPE     H15Y     HAL2     0.900000E-01   1.00800           0   0.00000     -0.301140E-02
      6963 MEMB     57       PMPE     C316     CTL3    -0.270000       12.0110           0   0.00000     -0.301140E-02
      6964 MEMB     57       PMPE     H16X     HAL3     0.900000E-01   1.00800           0   0.00000     -0.301140E-02
      6965 MEMB     57       PMPE     H16Y     HAL3     0.900000E-01   1.00800           0   0.00000     -0.301140E-02
      6966 MEMB     57       PMPE     H16Z     HAL3     0.900000E-01   1.00800           0   0.00000     -0.301140E-02
      6967 MEMB     58       PMPE     N        NH3L    -0.300000       14.0070           0   0.00000     -0.301140E-02
      6968 MEMB     58       PMPE     HN1      HCL      0.330000       1.00800           0   0.00000     -0.301140E-02
      6969 MEMB     58       PMPE     HN2      HCL      0.330000       1.00800           0   0.00000     -0.301140E-02
      6970 MEMB     58       PMPE     HN3      HCL      0.330000       1.00800           0   0.00000     -0.301140E-02
      6971 MEMB     58       PMPE     C12      CTL2     0.130000       12.0110           0   0.00000     -0.301140E-02
      6972 MEMB     58       PMPE     H12A     HAL2     0.900000E-01   1.00800           0   0.00000     -0.301140E-02
      6973 MEMB     58       PMPE     H12B     HAL2     0.900000E-01   1.00800           0   0.00000     -0.301140E-02
      6974 MEMB     58       PMPE     C11      CTL2    -0.800000E-01   12.0110           0   0.00000     -0.301140E-02
      6975 MEMB     58       PMPE     H11A     HAL2     0.900000E-01   1.00800           0   0.00000     -0.301140E-02
      6976 MEMB     58       PMPE     H11B     HAL2     0.900000E-01   1.00800           0   0.00000     -0.301140E-02
      6977 MEMB     58       PMPE     P        PL        1.50000       30.9740           0   0.00000     -0.301140E-02
      6978 MEMB     58       PMPE     O13      O2L     -0.780000       15.9994           0   0.00000     -0.301140E-02
      6979 MEMB     58       PMPE     O14      O2L     -0.780000       15.9994           0   0.00000     -0.301140E-02
      6980 MEMB     58       PMPE     O11      OSLP    -0.570000       15.9994           0   0.00000     -0.301140E-02
      6981 MEMB     58       PMPE     O12      OSLP    -0.570000       15.9994           0   0.00000     -0.301140E-02
      6982 MEMB     58       PMPE     C1       CTL2    -0.800000E-01   12.0110           0   0.00000     -0.301140E-02
      6983 MEMB     58       PMPE     HA       HAL2     0.900000E-01   1.00800           0   0.00000     -0.301140E-02
      6984 MEMB     58       PMPE     HB       HAL2     0.900000E-01   1.00800           0   0.00000     -0.301140E-02
      6985 MEMB     58       PMPE     C2       CTL1     0.170000       12.0110           0   0.00000     -0.301140E-02
      6986 MEMB     58       PMPE     HS       HAL1     0.900000E-01   1.00800           0   0.00000     -0.301140E-02
      6987 MEMB     58       PMPE     O21      OSL     -0.490000       15.9994           0   0.00000     -0.301140E-02
      6988 MEMB     58       PMPE     C21      CL       0.900000       12.0110           0   0.00000     -0.301140E-02
      6989 MEMB     58       PMPE     O22      OBL     -0.630000       15.9994           0   0.00000     -0.301140E-02
      6990 MEMB     58       PMPE     C22      CTL2    -0.220000       12.0110           0   0.00000     -0.301140E-02
      6991 MEMB     58       PMPE     H2R      HAL2     0.900000E-01   1.00800           0   0.00000     -0.301140E-02
      6992 MEMB     58       PMPE     H2S      HAL2     0.900000E-01   1.00800           0   0.00000     -0.301140E-02
      6993 MEMB     58       PMPE     C3       CTL2     0.800000E-01   12.0110           0   0.00000     -0.301140E-02
      6994 MEMB     58       PMPE     HX       HAL2     0.900000E-01   1.00800           0   0.00000     -0.301140E-02
      6995 MEMB     58       PMPE     HY       HAL2     0.900000E-01   1.00800           0   0.00000     -0.301140E-02
      6996 MEMB     58       PMPE     O31      OSL     -0.490000       15.9994           0   0.00000     -0.301140E-02
      6997 MEMB     58       PMPE     C31      CL       0.900000       12.0110           0   0.00000     -0.301140E-02
      6998 MEMB     58       PMPE     O32      OBL     -0.630000       15.9994           0   0.00000     -0.301140E-02
      6999 MEMB     58       PMPE     C32      CTL2    -0.220000       12.0110           0   0.00000     -0.301140E-02
      7000 MEMB     58       PMPE     H2X      HAL2     0.900000E-01   1.00800           0   0.00000     -0.301140E-02
      7001 MEMB     58       PMPE     H2Y      HAL2     0.900000E-01   1.00800           0   0.00000     -0.301140E-02
      7002 MEMB     58       PMPE     C23      CTL2    -0.180000       12.0110           0   0.00000     -0.301140E-02
      7003 MEMB     58       PMPE     H3R      HAL2     0.900000E-01   1.00800           0   0.00000     -0.301140E-02
      7004 MEMB     58       PMPE     H3S      HAL2     0.900000E-01   1.00800           0   0.00000     -0.301140E-02
      7005 MEMB     58       PMPE     C24      CTL2    -0.180000       12.0110           0   0.00000     -0.301140E-02
      7006 MEMB     58       PMPE     H4R      HAL2     0.900000E-01   1.00800           0   0.00000     -0.301140E-02
      7007 MEMB     58       PMPE     H4S      HAL2     0.900000E-01   1.00800           0   0.00000     -0.301140E-02
      7008 MEMB     58       PMPE     C25      CTL2    -0.180000       12.0110           0   0.00000     -0.301140E-02
      7009 MEMB     58       PMPE     H5R      HAL2     0.900000E-01   1.00800           0   0.00000     -0.301140E-02
      7010 MEMB     58       PMPE     H5S      HAL2     0.900000E-01   1.00800           0   0.00000     -0.301140E-02
      7011 MEMB     58       PMPE     C26      CTL2    -0.180000       12.0110           0   0.00000     -0.301140E-02
      7012 MEMB     58       PMPE     H6R      HAL2     0.900000E-01   1.00800           0   0.00000     -0.301140E-02
      7013 MEMB     58       PMPE     H6S      HAL2     0.900000E-01   1.00800           0   0.00000     -0.301140E-02
      7014 MEMB     58       PMPE     C27      CTL2    -0.180000       12.0110           0   0.00000     -0.301140E-02
      7015 MEMB     58       PMPE     H7R      HAL2     0.900000E-01   1.00800           0   0.00000     -0.301140E-02
      7016 MEMB     58       PMPE     H7S      HAL2     0.900000E-01   1.00800           0   0.00000     -0.301140E-02
      7017 MEMB     58       PMPE     C28      CTL2    -0.180000       12.0110           0   0.00000     -0.301140E-02
      7018 MEMB     58       PMPE     H8R      HAL2     0.900000E-01   1.00800           0   0.00000     -0.301140E-02
      7019 MEMB     58       PMPE     H8S      HAL2     0.900000E-01   1.00800           0   0.00000     -0.301140E-02
      7020 MEMB     58       PMPE     C29      CG3RC1  -0.900000E-01   12.0110           0   0.00000     -0.301140E-02
      7021 MEMB     58       PMPE     H9R      HGA1     0.900000E-01   1.00800           0   0.00000     -0.301140E-02
      7022 MEMB     58       PMPE     C217     CG3C31  -0.180000       12.0110           0   0.00000     -0.301140E-02
      7023 MEMB     58       PMPE     H17R     HGA2     0.900000E-01   1.00800           0   0.00000     -0.301140E-02
      7024 MEMB     58       PMPE     H17S     HGA2     0.900000E-01   1.00800           0   0.00000     -0.301140E-02
      7025 MEMB     58       PMPE     C210     CG3RC1  -0.900000E-01   12.0110           0   0.00000     -0.301140E-02
      7026 MEMB     58       PMPE     H10R     HGA1     0.900000E-01   1.00800           0   0.00000     -0.301140E-02
      7027 MEMB     58       PMPE     C211     CTL2    -0.180000       12.0110           0   0.00000     -0.301140E-02
      7028 MEMB     58       PMPE     H11R     HAL2     0.900000E-01   1.00800           0   0.00000     -0.301140E-02
      7029 MEMB     58       PMPE     H11S     HAL2     0.900000E-01   1.00800           0   0.00000     -0.301140E-02
      7030 MEMB     58       PMPE     C212     CTL2    -0.180000       12.0110           0   0.00000     -0.301140E-02
      7031 MEMB     58       PMPE     H12R     HAL2     0.900000E-01   1.00800           0   0.00000     -0.301140E-02
      7032 MEMB     58       PMPE     H12S     HAL2     0.900000E-01   1.00800           0   0.00000     -0.301140E-02
      7033 MEMB     58       PMPE     C213     CTL2    -0.180000       12.0110           0   0.00000     -0.301140E-02
      7034 MEMB     58       PMPE     H13R     HAL2     0.900000E-01   1.00800           0   0.00000     -0.301140E-02
      7035 MEMB     58       PMPE     H13S     HAL2     0.900000E-01   1.00800           0   0.00000     -0.301140E-02
      7036 MEMB     58       PMPE     C214     CTL2    -0.180000       12.0110           0   0.00000     -0.301140E-02
      7037 MEMB     58       PMPE     H14R     HAL2     0.900000E-01   1.00800           0   0.00000     -0.301140E-02
      7038 MEMB     58       PMPE     H14S     HAL2     0.900000E-01   1.00800           0   0.00000     -0.301140E-02
      7039 MEMB     58       PMPE     C215     CTL2    -0.180000       12.0110           0   0.00000     -0.301140E-02
      7040 MEMB     58       PMPE     H15R     HAL2     0.900000E-01   1.00800           0   0.00000     -0.301140E-02
      7041 MEMB     58       PMPE     H15S     HAL2     0.900000E-01   1.00800           0   0.00000     -0.301140E-02
      7042 MEMB     58       PMPE     C216     CTL3    -0.270000       12.0110           0   0.00000     -0.301140E-02
      7043 MEMB     58       PMPE     H16R     HAL3     0.900000E-01   1.00800           0   0.00000     -0.301140E-02
      7044 MEMB     58       PMPE     H16S     HAL3     0.900000E-01   1.00800           0   0.00000     -0.301140E-02
      7045 MEMB     58       PMPE     H16T     HAL3     0.900000E-01   1.00800           0   0.00000     -0.301140E-02
      7046 MEMB     58       PMPE     C33      CTL2    -0.180000       12.0110           0   0.00000     -0.301140E-02
      7047 MEMB     58       PMPE     H3X      HAL2     0.900000E-01   1.00800           0   0.00000     -0.301140E-02
      7048 MEMB     58       PMPE     H3Y      HAL2     0.900000E-01   1.00800           0   0.00000     -0.301140E-02
      7049 MEMB     58       PMPE     C34      CTL2    -0.180000       12.0110           0   0.00000     -0.301140E-02
      7050 MEMB     58       PMPE     H4X      HAL2     0.900000E-01   1.00800           0   0.00000     -0.301140E-02
      7051 MEMB     58       PMPE     H4Y      HAL2     0.900000E-01   1.00800           0   0.00000     -0.301140E-02
      7052 MEMB     58       PMPE     C35      CTL2    -0.180000       12.0110           0   0.00000     -0.301140E-02
      7053 MEMB     58       PMPE     H5X      HAL2     0.900000E-01   1.00800           0   0.00000     -0.301140E-02
      7054 MEMB     58       PMPE     H5Y      HAL2     0.900000E-01   1.00800           0   0.00000     -0.301140E-02
      7055 MEMB     58       PMPE     C36      CTL2    -0.180000       12.0110           0   0.00000     -0.301140E-02
      7056 MEMB     58       PMPE     H6X      HAL2     0.900000E-01   1.00800           0   0.00000     -0.301140E-02
      7057 MEMB     58       PMPE     H6Y      HAL2     0.900000E-01   1.00800           0   0.00000     -0.301140E-02
      7058 MEMB     58       PMPE     C37      CTL2    -0.180000       12.0110           0   0.00000     -0.301140E-02
      7059 MEMB     58       PMPE     H7X      HAL2     0.900000E-01   1.00800           0   0.00000     -0.301140E-02
      7060 MEMB     58       PMPE     H7Y      HAL2     0.900000E-01   1.00800           0   0.00000     -0.301140E-02
      7061 MEMB     58       PMPE     C38      CTL2    -0.180000       12.0110           0   0.00000     -0.301140E-02
      7062 MEMB     58       PMPE     H8X      HAL2     0.900000E-01   1.00800           0   0.00000     -0.301140E-02
      7063 MEMB     58       PMPE     H8Y      HAL2     0.900000E-01   1.00800           0   0.00000     -0.301140E-02
      7064 MEMB     58       PMPE     C39      CTL2    -0.180000       12.0110           0   0.00000     -0.301140E-02
      7065 MEMB     58       PMPE     H9X      HAL2     0.900000E-01   1.00800           0   0.00000     -0.301140E-02
      7066 MEMB     58       PMPE     H9Y      HAL2     0.900000E-01   1.00800           0   0.00000     -0.301140E-02
      7067 MEMB     58       PMPE     C310     CTL2    -0.180000       12.0110           0   0.00000     -0.301140E-02
      7068 MEMB     58       PMPE     H10X     HAL2     0.900000E-01   1.00800           0   0.00000     -0.301140E-02
      7069 MEMB     58       PMPE     H10Y     HAL2     0.900000E-01   1.00800           0   0.00000     -0.301140E-02
      7070 MEMB     58       PMPE     C311     CTL2    -0.180000       12.0110           0   0.00000     -0.301140E-02
      7071 MEMB     58       PMPE     H11X     HAL2     0.900000E-01   1.00800           0   0.00000     -0.301140E-02
      7072 MEMB     58       PMPE     H11Y     HAL2     0.900000E-01   1.00800           0   0.00000     -0.301140E-02
      7073 MEMB     58       PMPE     C312     CTL2    -0.180000       12.0110           0   0.00000     -0.301140E-02
      7074 MEMB     58       PMPE     H12X     HAL2     0.900000E-01   1.00800           0   0.00000     -0.301140E-02
      7075 MEMB     58       PMPE     H12Y     HAL2     0.900000E-01   1.00800           0   0.00000     -0.301140E-02
      7076 MEMB     58       PMPE     C313     CTL2    -0.180000       12.0110           0   0.00000     -0.301140E-02
      7077 MEMB     58       PMPE     H13X     HAL2     0.900000E-01   1.00800           0   0.00000     -0.301140E-02
      7078 MEMB     58       PMPE     H13Y     HAL2     0.900000E-01   1.00800           0   0.00000     -0.301140E-02
      7079 MEMB     58       PMPE     C314     CTL2    -0.180000       12.0110           0   0.00000     -0.301140E-02
      7080 MEMB     58       PMPE     H14X     HAL2     0.900000E-01   1.00800           0   0.00000     -0.301140E-02
      7081 MEMB     58       PMPE     H14Y     HAL2     0.900000E-01   1.00800           0   0.00000     -0.301140E-02
      7082 MEMB     58       PMPE     C315     CTL2    -0.180000       12.0110           0   0.00000     -0.301140E-02
      7083 MEMB     58       PMPE     H15X     HAL2     0.900000E-01   1.00800           0   0.00000     -0.301140E-02
      7084 MEMB     58       PMPE     H15Y     HAL2     0.900000E-01   1.00800           0   0.00000     -0.301140E-02
      7085 MEMB     58       PMPE     C316     CTL3    -0.270000       12.0110           0   0.00000     -0.301140E-02
      7086 MEMB     58       PMPE     H16X     HAL3     0.900000E-01   1.00800           0   0.00000     -0.301140E-02
      7087 MEMB     58       PMPE     H16Y     HAL3     0.900000E-01   1.00800           0   0.00000     -0.301140E-02
      7088 MEMB     58       PMPE     H16Z     HAL3     0.900000E-01   1.00800           0   0.00000     -0.301140E-02
      7089 MEMB     59       PMPE     N        NH3L    -0.300000       14.0070           0   0.00000     -0.301140E-02
      7090 MEMB     59       PMPE     HN1      HCL      0.330000       1.00800           0   0.00000     -0.301140E-02
      7091 MEMB     59       PMPE     HN2      HCL      0.330000       1.00800           0   0.00000     -0.301140E-02
      7092 MEMB     59       PMPE     HN3      HCL      0.330000       1.00800           0   0.00000     -0.301140E-02
      7093 MEMB     59       PMPE     C12      CTL2     0.130000       12.0110           0   0.00000     -0.301140E-02
      7094 MEMB     59       PMPE     H12A     HAL2     0.900000E-01   1.00800           0   0.00000     -0.301140E-02
      7095 MEMB     59       PMPE     H12B     HAL2     0.900000E-01   1.00800           0   0.00000     -0.301140E-02
      7096 MEMB     59       PMPE     C11      CTL2    -0.800000E-01   12.0110           0   0.00000     -0.301140E-02
      7097 MEMB     59       PMPE     H11A     HAL2     0.900000E-01   1.00800           0   0.00000     -0.301140E-02
      7098 MEMB     59       PMPE     H11B     HAL2     0.900000E-01   1.00800           0   0.00000     -0.301140E-02
      7099 MEMB     59       PMPE     P        PL        1.50000       30.9740           0   0.00000     -0.301140E-02
      7100 MEMB     59       PMPE     O13      O2L     -0.780000       15.9994           0   0.00000     -0.301140E-02
      7101 MEMB     59       PMPE     O14      O2L     -0.780000       15.9994           0   0.00000     -0.301140E-02
      7102 MEMB     59       PMPE     O11      OSLP    -0.570000       15.9994           0   0.00000     -0.301140E-02
      7103 MEMB     59       PMPE     O12      OSLP    -0.570000       15.9994           0   0.00000     -0.301140E-02
      7104 MEMB     59       PMPE     C1       CTL2    -0.800000E-01   12.0110           0   0.00000     -0.301140E-02
      7105 MEMB     59       PMPE     HA       HAL2     0.900000E-01   1.00800           0   0.00000     -0.301140E-02
      7106 MEMB     59       PMPE     HB       HAL2     0.900000E-01   1.00800           0   0.00000     -0.301140E-02
      7107 MEMB     59       PMPE     C2       CTL1     0.170000       12.0110           0   0.00000     -0.301140E-02
      7108 MEMB     59       PMPE     HS       HAL1     0.900000E-01   1.00800           0   0.00000     -0.301140E-02
      7109 MEMB     59       PMPE     O21      OSL     -0.490000       15.9994           0   0.00000     -0.301140E-02
      7110 MEMB     59       PMPE     C21      CL       0.900000       12.0110           0   0.00000     -0.301140E-02
      7111 MEMB     59       PMPE     O22      OBL     -0.630000       15.9994           0   0.00000     -0.301140E-02
      7112 MEMB     59       PMPE     C22      CTL2    -0.220000       12.0110           0   0.00000     -0.301140E-02
      7113 MEMB     59       PMPE     H2R      HAL2     0.900000E-01   1.00800           0   0.00000     -0.301140E-02
      7114 MEMB     59       PMPE     H2S      HAL2     0.900000E-01   1.00800           0   0.00000     -0.301140E-02
      7115 MEMB     59       PMPE     C3       CTL2     0.800000E-01   12.0110           0   0.00000     -0.301140E-02
      7116 MEMB     59       PMPE     HX       HAL2     0.900000E-01   1.00800           0   0.00000     -0.301140E-02
      7117 MEMB     59       PMPE     HY       HAL2     0.900000E-01   1.00800           0   0.00000     -0.301140E-02
      7118 MEMB     59       PMPE     O31      OSL     -0.490000       15.9994           0   0.00000     -0.301140E-02
      7119 MEMB     59       PMPE     C31      CL       0.900000       12.0110           0   0.00000     -0.301140E-02
      7120 MEMB     59       PMPE     O32      OBL     -0.630000       15.9994           0   0.00000     -0.301140E-02
      7121 MEMB     59       PMPE     C32      CTL2    -0.220000       12.0110           0   0.00000     -0.301140E-02
      7122 MEMB     59       PMPE     H2X      HAL2     0.900000E-01   1.00800           0   0.00000     -0.301140E-02
      7123 MEMB     59       PMPE     H2Y      HAL2     0.900000E-01   1.00800           0   0.00000     -0.301140E-02
      7124 MEMB     59       PMPE     C23      CTL2    -0.180000       12.0110           0   0.00000     -0.301140E-02
      7125 MEMB     59       PMPE     H3R      HAL2     0.900000E-01   1.00800           0   0.00000     -0.301140E-02
      7126 MEMB     59       PMPE     H3S      HAL2     0.900000E-01   1.00800           0   0.00000     -0.301140E-02
      7127 MEMB     59       PMPE     C24      CTL2    -0.180000       12.0110           0   0.00000     -0.301140E-02
      7128 MEMB     59       PMPE     H4R      HAL2     0.900000E-01   1.00800           0   0.00000     -0.301140E-02
      7129 MEMB     59       PMPE     H4S      HAL2     0.900000E-01   1.00800           0   0.00000     -0.301140E-02
      7130 MEMB     59       PMPE     C25      CTL2    -0.180000       12.0110           0   0.00000     -0.301140E-02
      7131 MEMB     59       PMPE     H5R      HAL2     0.900000E-01   1.00800           0   0.00000     -0.301140E-02
      7132 MEMB     59       PMPE     H5S      HAL2     0.900000E-01   1.00800           0   0.00000     -0.301140E-02
      7133 MEMB     59       PMPE     C26      CTL2    -0.180000       12.0110           0   0.00000     -0.301140E-02
      7134 MEMB     59       PMPE     H6R      HAL2     0.900000E-01   1.00800           0   0.00000     -0.301140E-02
      7135 MEMB     59       PMPE     H6S      HAL2     0.900000E-01   1.00800           0   0.00000     -0.301140E-02
      7136 MEMB     59       PMPE     C27      CTL2    -0.180000       12.0110           0   0.00000     -0.301140E-02
      7137 MEMB     59       PMPE     H7R      HAL2     0.900000E-01   1.00800           0   0.00000     -0.301140E-02
      7138 MEMB     59       PMPE     H7S      HAL2     0.900000E-01   1.00800           0   0.00000     -0.301140E-02
      7139 MEMB     59       PMPE     C28      CTL2    -0.180000       12.0110           0   0.00000     -0.301140E-02
      7140 MEMB     59       PMPE     H8R      HAL2     0.900000E-01   1.00800           0   0.00000     -0.301140E-02
      7141 MEMB     59       PMPE     H8S      HAL2     0.900000E-01   1.00800           0   0.00000     -0.301140E-02
      7142 MEMB     59       PMPE     C29      CG3RC1  -0.900000E-01   12.0110           0   0.00000     -0.301140E-02
      7143 MEMB     59       PMPE     H9R      HGA1     0.900000E-01   1.00800           0   0.00000     -0.301140E-02
      7144 MEMB     59       PMPE     C217     CG3C31  -0.180000       12.0110           0   0.00000     -0.301140E-02
      7145 MEMB     59       PMPE     H17R     HGA2     0.900000E-01   1.00800           0   0.00000     -0.301140E-02
      7146 MEMB     59       PMPE     H17S     HGA2     0.900000E-01   1.00800           0   0.00000     -0.301140E-02
      7147 MEMB     59       PMPE     C210     CG3RC1  -0.900000E-01   12.0110           0   0.00000     -0.301140E-02
      7148 MEMB     59       PMPE     H10R     HGA1     0.900000E-01   1.00800           0   0.00000     -0.301140E-02
      7149 MEMB     59       PMPE     C211     CTL2    -0.180000       12.0110           0   0.00000     -0.301140E-02
      7150 MEMB     59       PMPE     H11R     HAL2     0.900000E-01   1.00800           0   0.00000     -0.301140E-02
      7151 MEMB     59       PMPE     H11S     HAL2     0.900000E-01   1.00800           0   0.00000     -0.301140E-02
      7152 MEMB     59       PMPE     C212     CTL2    -0.180000       12.0110           0   0.00000     -0.301140E-02
      7153 MEMB     59       PMPE     H12R     HAL2     0.900000E-01   1.00800           0   0.00000     -0.301140E-02
      7154 MEMB     59       PMPE     H12S     HAL2     0.900000E-01   1.00800           0   0.00000     -0.301140E-02
      7155 MEMB     59       PMPE     C213     CTL2    -0.180000       12.0110           0   0.00000     -0.301140E-02
      7156 MEMB     59       PMPE     H13R     HAL2     0.900000E-01   1.00800           0   0.00000     -0.301140E-02
      7157 MEMB     59       PMPE     H13S     HAL2     0.900000E-01   1.00800           0   0.00000     -0.301140E-02
      7158 MEMB     59       PMPE     C214     CTL2    -0.180000       12.0110           0   0.00000     -0.301140E-02
      7159 MEMB     59       PMPE     H14R     HAL2     0.900000E-01   1.00800           0   0.00000     -0.301140E-02
      7160 MEMB     59       PMPE     H14S     HAL2     0.900000E-01   1.00800           0   0.00000     -0.301140E-02
      7161 MEMB     59       PMPE     C215     CTL2    -0.180000       12.0110           0   0.00000     -0.301140E-02
      7162 MEMB     59       PMPE     H15R     HAL2     0.900000E-01   1.00800           0   0.00000     -0.301140E-02
      7163 MEMB     59       PMPE     H15S     HAL2     0.900000E-01   1.00800           0   0.00000     -0.301140E-02
      7164 MEMB     59       PMPE     C216     CTL3    -0.270000       12.0110           0   0.00000     -0.301140E-02
      7165 MEMB     59       PMPE     H16R     HAL3     0.900000E-01   1.00800           0   0.00000     -0.301140E-02
      7166 MEMB     59       PMPE     H16S     HAL3     0.900000E-01   1.00800           0   0.00000     -0.301140E-02
      7167 MEMB     59       PMPE     H16T     HAL3     0.900000E-01   1.00800           0   0.00000     -0.301140E-02
      7168 MEMB     59       PMPE     C33      CTL2    -0.180000       12.0110           0   0.00000     -0.301140E-02
      7169 MEMB     59       PMPE     H3X      HAL2     0.900000E-01   1.00800           0   0.00000     -0.301140E-02
      7170 MEMB     59       PMPE     H3Y      HAL2     0.900000E-01   1.00800           0   0.00000     -0.301140E-02
      7171 MEMB     59       PMPE     C34      CTL2    -0.180000       12.0110           0   0.00000     -0.301140E-02
      7172 MEMB     59       PMPE     H4X      HAL2     0.900000E-01   1.00800           0   0.00000     -0.301140E-02
      7173 MEMB     59       PMPE     H4Y      HAL2     0.900000E-01   1.00800           0   0.00000     -0.301140E-02
      7174 MEMB     59       PMPE     C35      CTL2    -0.180000       12.0110           0   0.00000     -0.301140E-02
      7175 MEMB     59       PMPE     H5X      HAL2     0.900000E-01   1.00800           0   0.00000     -0.301140E-02
      7176 MEMB     59       PMPE     H5Y      HAL2     0.900000E-01   1.00800           0   0.00000     -0.301140E-02
      7177 MEMB     59       PMPE     C36      CTL2    -0.180000       12.0110           0   0.00000     -0.301140E-02
      7178 MEMB     59       PMPE     H6X      HAL2     0.900000E-01   1.00800           0   0.00000     -0.301140E-02
      7179 MEMB     59       PMPE     H6Y      HAL2     0.900000E-01   1.00800           0   0.00000     -0.301140E-02
      7180 MEMB     59       PMPE     C37      CTL2    -0.180000       12.0110           0   0.00000     -0.301140E-02
      7181 MEMB     59       PMPE     H7X      HAL2     0.900000E-01   1.00800           0   0.00000     -0.301140E-02
      7182 MEMB     59       PMPE     H7Y      HAL2     0.900000E-01   1.00800           0   0.00000     -0.301140E-02
      7183 MEMB     59       PMPE     C38      CTL2    -0.180000       12.0110           0   0.00000     -0.301140E-02
      7184 MEMB     59       PMPE     H8X      HAL2     0.900000E-01   1.00800           0   0.00000     -0.301140E-02
      7185 MEMB     59       PMPE     H8Y      HAL2     0.900000E-01   1.00800           0   0.00000     -0.301140E-02
      7186 MEMB     59       PMPE     C39      CTL2    -0.180000       12.0110           0   0.00000     -0.301140E-02
      7187 MEMB     59       PMPE     H9X      HAL2     0.900000E-01   1.00800           0   0.00000     -0.301140E-02
      7188 MEMB     59       PMPE     H9Y      HAL2     0.900000E-01   1.00800           0   0.00000     -0.301140E-02
      7189 MEMB     59       PMPE     C310     CTL2    -0.180000       12.0110           0   0.00000     -0.301140E-02
      7190 MEMB     59       PMPE     H10X     HAL2     0.900000E-01   1.00800           0   0.00000     -0.301140E-02
      7191 MEMB     59       PMPE     H10Y     HAL2     0.900000E-01   1.00800           0   0.00000     -0.301140E-02
      7192 MEMB     59       PMPE     C311     CTL2    -0.180000       12.0110           0   0.00000     -0.301140E-02
      7193 MEMB     59       PMPE     H11X     HAL2     0.900000E-01   1.00800           0   0.00000     -0.301140E-02
      7194 MEMB     59       PMPE     H11Y     HAL2     0.900000E-01   1.00800           0   0.00000     -0.301140E-02
      7195 MEMB     59       PMPE     C312     CTL2    -0.180000       12.0110           0   0.00000     -0.301140E-02
      7196 MEMB     59       PMPE     H12X     HAL2     0.900000E-01   1.00800           0   0.00000     -0.301140E-02
      7197 MEMB     59       PMPE     H12Y     HAL2     0.900000E-01   1.00800           0   0.00000     -0.301140E-02
      7198 MEMB     59       PMPE     C313     CTL2    -0.180000       12.0110           0   0.00000     -0.301140E-02
      7199 MEMB     59       PMPE     H13X     HAL2     0.900000E-01   1.00800           0   0.00000     -0.301140E-02
      7200 MEMB     59       PMPE     H13Y     HAL2     0.900000E-01   1.00800           0   0.00000     -0.301140E-02
      7201 MEMB     59       PMPE     C314     CTL2    -0.180000       12.0110           0   0.00000     -0.301140E-02
      7202 MEMB     59       PMPE     H14X     HAL2     0.900000E-01   1.00800           0   0.00000     -0.301140E-02
      7203 MEMB     59       PMPE     H14Y     HAL2     0.900000E-01   1.00800           0   0.00000     -0.301140E-02
      7204 MEMB     59       PMPE     C315     CTL2    -0.180000       12.0110           0   0.00000     -0.301140E-02
      7205 MEMB     59       PMPE     H15X     HAL2     0.900000E-01   1.00800           0   0.00000     -0.301140E-02
      7206 MEMB     59       PMPE     H15Y     HAL2     0.900000E-01   1.00800           0   0.00000     -0.301140E-02
      7207 MEMB     59       PMPE     C316     CTL3    -0.270000       12.0110           0   0.00000     -0.301140E-02
      7208 MEMB     59       PMPE     H16X     HAL3     0.900000E-01   1.00800           0   0.00000     -0.301140E-02
      7209 MEMB     59       PMPE     H16Y     HAL3     0.900000E-01   1.00800           0   0.00000     -0.301140E-02
      7210 MEMB     59       PMPE     H16Z     HAL3     0.900000E-01   1.00800           0   0.00000     -0.301140E-02
      7211 MEMB     60       PMPE     N        NH3L    -0.300000       14.0070           0   0.00000     -0.301140E-02
      7212 MEMB     60       PMPE     HN1      HCL      0.330000       1.00800           0   0.00000     -0.301140E-02
      7213 MEMB     60       PMPE     HN2      HCL      0.330000       1.00800           0   0.00000     -0.301140E-02
      7214 MEMB     60       PMPE     HN3      HCL      0.330000       1.00800           0   0.00000     -0.301140E-02
      7215 MEMB     60       PMPE     C12      CTL2     0.130000       12.0110           0   0.00000     -0.301140E-02
      7216 MEMB     60       PMPE     H12A     HAL2     0.900000E-01   1.00800           0   0.00000     -0.301140E-02
      7217 MEMB     60       PMPE     H12B     HAL2     0.900000E-01   1.00800           0   0.00000     -0.301140E-02
      7218 MEMB     60       PMPE     C11      CTL2    -0.800000E-01   12.0110           0   0.00000     -0.301140E-02
      7219 MEMB     60       PMPE     H11A     HAL2     0.900000E-01   1.00800           0   0.00000     -0.301140E-02
      7220 MEMB     60       PMPE     H11B     HAL2     0.900000E-01   1.00800           0   0.00000     -0.301140E-02
      7221 MEMB     60       PMPE     P        PL        1.50000       30.9740           0   0.00000     -0.301140E-02
      7222 MEMB     60       PMPE     O13      O2L     -0.780000       15.9994           0   0.00000     -0.301140E-02
      7223 MEMB     60       PMPE     O14      O2L     -0.780000       15.9994           0   0.00000     -0.301140E-02
      7224 MEMB     60       PMPE     O11      OSLP    -0.570000       15.9994           0   0.00000     -0.301140E-02
      7225 MEMB     60       PMPE     O12      OSLP    -0.570000       15.9994           0   0.00000     -0.301140E-02
      7226 MEMB     60       PMPE     C1       CTL2    -0.800000E-01   12.0110           0   0.00000     -0.301140E-02
      7227 MEMB     60       PMPE     HA       HAL2     0.900000E-01   1.00800           0   0.00000     -0.301140E-02
      7228 MEMB     60       PMPE     HB       HAL2     0.900000E-01   1.00800           0   0.00000     -0.301140E-02
      7229 MEMB     60       PMPE     C2       CTL1     0.170000       12.0110           0   0.00000     -0.301140E-02
      7230 MEMB     60       PMPE     HS       HAL1     0.900000E-01   1.00800           0   0.00000     -0.301140E-02
      7231 MEMB     60       PMPE     O21      OSL     -0.490000       15.9994           0   0.00000     -0.301140E-02
      7232 MEMB     60       PMPE     C21      CL       0.900000       12.0110           0   0.00000     -0.301140E-02
      7233 MEMB     60       PMPE     O22      OBL     -0.630000       15.9994           0   0.00000     -0.301140E-02
      7234 MEMB     60       PMPE     C22      CTL2    -0.220000       12.0110           0   0.00000     -0.301140E-02
      7235 MEMB     60       PMPE     H2R      HAL2     0.900000E-01   1.00800           0   0.00000     -0.301140E-02
      7236 MEMB     60       PMPE     H2S      HAL2     0.900000E-01   1.00800           0   0.00000     -0.301140E-02
      7237 MEMB     60       PMPE     C3       CTL2     0.800000E-01   12.0110           0   0.00000     -0.301140E-02
      7238 MEMB     60       PMPE     HX       HAL2     0.900000E-01   1.00800           0   0.00000     -0.301140E-02
      7239 MEMB     60       PMPE     HY       HAL2     0.900000E-01   1.00800           0   0.00000     -0.301140E-02
      7240 MEMB     60       PMPE     O31      OSL     -0.490000       15.9994           0   0.00000     -0.301140E-02
      7241 MEMB     60       PMPE     C31      CL       0.900000       12.0110           0   0.00000     -0.301140E-02
      7242 MEMB     60       PMPE     O32      OBL     -0.630000       15.9994           0   0.00000     -0.301140E-02
      7243 MEMB     60       PMPE     C32      CTL2    -0.220000       12.0110           0   0.00000     -0.301140E-02
      7244 MEMB     60       PMPE     H2X      HAL2     0.900000E-01   1.00800           0   0.00000     -0.301140E-02
      7245 MEMB     60       PMPE     H2Y      HAL2     0.900000E-01   1.00800           0   0.00000     -0.301140E-02
      7246 MEMB     60       PMPE     C23      CTL2    -0.180000       12.0110           0   0.00000     -0.301140E-02
      7247 MEMB     60       PMPE     H3R      HAL2     0.900000E-01   1.00800           0   0.00000     -0.301140E-02
      7248 MEMB     60       PMPE     H3S      HAL2     0.900000E-01   1.00800           0   0.00000     -0.301140E-02
      7249 MEMB     60       PMPE     C24      CTL2    -0.180000       12.0110           0   0.00000     -0.301140E-02
      7250 MEMB     60       PMPE     H4R      HAL2     0.900000E-01   1.00800           0   0.00000     -0.301140E-02
      7251 MEMB     60       PMPE     H4S      HAL2     0.900000E-01   1.00800           0   0.00000     -0.301140E-02
      7252 MEMB     60       PMPE     C25      CTL2    -0.180000       12.0110           0   0.00000     -0.301140E-02
      7253 MEMB     60       PMPE     H5R      HAL2     0.900000E-01   1.00800           0   0.00000     -0.301140E-02
      7254 MEMB     60       PMPE     H5S      HAL2     0.900000E-01   1.00800           0   0.00000     -0.301140E-02
      7255 MEMB     60       PMPE     C26      CTL2    -0.180000       12.0110           0   0.00000     -0.301140E-02
      7256 MEMB     60       PMPE     H6R      HAL2     0.900000E-01   1.00800           0   0.00000     -0.301140E-02
      7257 MEMB     60       PMPE     H6S      HAL2     0.900000E-01   1.00800           0   0.00000     -0.301140E-02
      7258 MEMB     60       PMPE     C27      CTL2    -0.180000       12.0110           0   0.00000     -0.301140E-02
      7259 MEMB     60       PMPE     H7R      HAL2     0.900000E-01   1.00800           0   0.00000     -0.301140E-02
      7260 MEMB     60       PMPE     H7S      HAL2     0.900000E-01   1.00800           0   0.00000     -0.301140E-02
      7261 MEMB     60       PMPE     C28      CTL2    -0.180000       12.0110           0   0.00000     -0.301140E-02
      7262 MEMB     60       PMPE     H8R      HAL2     0.900000E-01   1.00800           0   0.00000     -0.301140E-02
      7263 MEMB     60       PMPE     H8S      HAL2     0.900000E-01   1.00800           0   0.00000     -0.301140E-02
      7264 MEMB     60       PMPE     C29      CG3RC1  -0.900000E-01   12.0110           0   0.00000     -0.301140E-02
      7265 MEMB     60       PMPE     H9R      HGA1     0.900000E-01   1.00800           0   0.00000     -0.301140E-02
      7266 MEMB     60       PMPE     C217     CG3C31  -0.180000       12.0110           0   0.00000     -0.301140E-02
      7267 MEMB     60       PMPE     H17R     HGA2     0.900000E-01   1.00800           0   0.00000     -0.301140E-02
      7268 MEMB     60       PMPE     H17S     HGA2     0.900000E-01   1.00800           0   0.00000     -0.301140E-02
      7269 MEMB     60       PMPE     C210     CG3RC1  -0.900000E-01   12.0110           0   0.00000     -0.301140E-02
      7270 MEMB     60       PMPE     H10R     HGA1     0.900000E-01   1.00800           0   0.00000     -0.301140E-02
      7271 MEMB     60       PMPE     C211     CTL2    -0.180000       12.0110           0   0.00000     -0.301140E-02
      7272 MEMB     60       PMPE     H11R     HAL2     0.900000E-01   1.00800           0   0.00000     -0.301140E-02
      7273 MEMB     60       PMPE     H11S     HAL2     0.900000E-01   1.00800           0   0.00000     -0.301140E-02
      7274 MEMB     60       PMPE     C212     CTL2    -0.180000       12.0110           0   0.00000     -0.301140E-02
      7275 MEMB     60       PMPE     H12R     HAL2     0.900000E-01   1.00800           0   0.00000     -0.301140E-02
      7276 MEMB     60       PMPE     H12S     HAL2     0.900000E-01   1.00800           0   0.00000     -0.301140E-02
      7277 MEMB     60       PMPE     C213     CTL2    -0.180000       12.0110           0   0.00000     -0.301140E-02
      7278 MEMB     60       PMPE     H13R     HAL2     0.900000E-01   1.00800           0   0.00000     -0.301140E-02
      7279 MEMB     60       PMPE     H13S     HAL2     0.900000E-01   1.00800           0   0.00000     -0.301140E-02
      7280 MEMB     60       PMPE     C214     CTL2    -0.180000       12.0110           0   0.00000     -0.301140E-02
      7281 MEMB     60       PMPE     H14R     HAL2     0.900000E-01   1.00800           0   0.00000     -0.301140E-02
      7282 MEMB     60       PMPE     H14S     HAL2     0.900000E-01   1.00800           0   0.00000     -0.301140E-02
      7283 MEMB     60       PMPE     C215     CTL2    -0.180000       12.0110           0   0.00000     -0.301140E-02
      7284 MEMB     60       PMPE     H15R     HAL2     0.900000E-01   1.00800           0   0.00000     -0.301140E-02
      7285 MEMB     60       PMPE     H15S     HAL2     0.900000E-01   1.00800           0   0.00000     -0.301140E-02
      7286 MEMB     60       PMPE     C216     CTL3    -0.270000       12.0110           0   0.00000     -0.301140E-02
      7287 MEMB     60       PMPE     H16R     HAL3     0.900000E-01   1.00800           0   0.00000     -0.301140E-02
      7288 MEMB     60       PMPE     H16S     HAL3     0.900000E-01   1.00800           0   0.00000     -0.301140E-02
      7289 MEMB     60       PMPE     H16T     HAL3     0.900000E-01   1.00800           0   0.00000     -0.301140E-02
      7290 MEMB     60       PMPE     C33      CTL2    -0.180000       12.0110           0   0.00000     -0.301140E-02
      7291 MEMB     60       PMPE     H3X      HAL2     0.900000E-01   1.00800           0   0.00000     -0.301140E-02
      7292 MEMB     60       PMPE     H3Y      HAL2     0.900000E-01   1.00800           0   0.00000     -0.301140E-02
      7293 MEMB     60       PMPE     C34      CTL2    -0.180000       12.0110           0   0.00000     -0.301140E-02
      7294 MEMB     60       PMPE     H4X      HAL2     0.900000E-01   1.00800           0   0.00000     -0.301140E-02
      7295 MEMB     60       PMPE     H4Y      HAL2     0.900000E-01   1.00800           0   0.00000     -0.301140E-02
      7296 MEMB     60       PMPE     C35      CTL2    -0.180000       12.0110           0   0.00000     -0.301140E-02
      7297 MEMB     60       PMPE     H5X      HAL2     0.900000E-01   1.00800           0   0.00000     -0.301140E-02
      7298 MEMB     60       PMPE     H5Y      HAL2     0.900000E-01   1.00800           0   0.00000     -0.301140E-02
      7299 MEMB     60       PMPE     C36      CTL2    -0.180000       12.0110           0   0.00000     -0.301140E-02
      7300 MEMB     60       PMPE     H6X      HAL2     0.900000E-01   1.00800           0   0.00000     -0.301140E-02
      7301 MEMB     60       PMPE     H6Y      HAL2     0.900000E-01   1.00800           0   0.00000     -0.301140E-02
      7302 MEMB     60       PMPE     C37      CTL2    -0.180000       12.0110           0   0.00000     -0.301140E-02
      7303 MEMB     60       PMPE     H7X      HAL2     0.900000E-01   1.00800           0   0.00000     -0.301140E-02
      7304 MEMB     60       PMPE     H7Y      HAL2     0.900000E-01   1.00800           0   0.00000     -0.301140E-02
      7305 MEMB     60       PMPE     C38      CTL2    -0.180000       12.0110           0   0.00000     -0.301140E-02
      7306 MEMB     60       PMPE     H8X      HAL2     0.900000E-01   1.00800           0   0.00000     -0.301140E-02
      7307 MEMB     60       PMPE     H8Y      HAL2     0.900000E-01   1.00800           0   0.00000     -0.301140E-02
      7308 MEMB     60       PMPE     C39      CTL2    -0.180000       12.0110           0   0.00000     -0.301140E-02
      7309 MEMB     60       PMPE     H9X      HAL2     0.900000E-01   1.00800           0   0.00000     -0.301140E-02
      7310 MEMB     60       PMPE     H9Y      HAL2     0.900000E-01   1.00800           0   0.00000     -0.301140E-02
      7311 MEMB     60       PMPE     C310     CTL2    -0.180000       12.0110           0   0.00000     -0.301140E-02
      7312 MEMB     60       PMPE     H10X     HAL2     0.900000E-01   1.00800           0   0.00000     -0.301140E-02
      7313 MEMB     60       PMPE     H10Y     HAL2     0.900000E-01   1.00800           0   0.00000     -0.301140E-02
      7314 MEMB     60       PMPE     C311     CTL2    -0.180000       12.0110           0   0.00000     -0.301140E-02
      7315 MEMB     60       PMPE     H11X     HAL2     0.900000E-01   1.00800           0   0.00000     -0.301140E-02
      7316 MEMB     60       PMPE     H11Y     HAL2     0.900000E-01   1.00800           0   0.00000     -0.301140E-02
      7317 MEMB     60       PMPE     C312     CTL2    -0.180000       12.0110           0   0.00000     -0.301140E-02
      7318 MEMB     60       PMPE     H12X     HAL2     0.900000E-01   1.00800           0   0.00000     -0.301140E-02
      7319 MEMB     60       PMPE     H12Y     HAL2     0.900000E-01   1.00800           0   0.00000     -0.301140E-02
      7320 MEMB     60       PMPE     C313     CTL2    -0.180000       12.0110           0   0.00000     -0.301140E-02
      7321 MEMB     60       PMPE     H13X     HAL2     0.900000E-01   1.00800           0   0.00000     -0.301140E-02
      7322 MEMB     60       PMPE     H13Y     HAL2     0.900000E-01   1.00800           0   0.00000     -0.301140E-02
      7323 MEMB     60       PMPE     C314     CTL2    -0.180000       12.0110           0   0.00000     -0.301140E-02
      7324 MEMB     60       PMPE     H14X     HAL2     0.900000E-01   1.00800           0   0.00000     -0.301140E-02
      7325 MEMB     60       PMPE     H14Y     HAL2     0.900000E-01   1.00800           0   0.00000     -0.301140E-02
      7326 MEMB     60       PMPE     C315     CTL2    -0.180000       12.0110           0   0.00000     -0.301140E-02
      7327 MEMB     60       PMPE     H15X     HAL2     0.900000E-01   1.00800           0   0.00000     -0.301140E-02
      7328 MEMB     60       PMPE     H15Y     HAL2     0.900000E-01   1.00800           0   0.00000     -0.301140E-02
      7329 MEMB     60       PMPE     C316     CTL3    -0.270000       12.0110           0   0.00000     -0.301140E-02
      7330 MEMB     60       PMPE     H16X     HAL3     0.900000E-01   1.00800           0   0.00000     -0.301140E-02
      7331 MEMB     60       PMPE     H16Y     HAL3     0.900000E-01   1.00800           0   0.00000     -0.301140E-02
      7332 MEMB     60       PMPE     H16Z     HAL3     0.900000E-01   1.00800           0   0.00000     -0.301140E-02
      7333 MEMB     61       PMPE     N        NH3L    -0.300000       14.0070           0   0.00000     -0.301140E-02
      7334 MEMB     61       PMPE     HN1      HCL      0.330000       1.00800           0   0.00000     -0.301140E-02
      7335 MEMB     61       PMPE     HN2      HCL      0.330000       1.00800           0   0.00000     -0.301140E-02
      7336 MEMB     61       PMPE     HN3      HCL      0.330000       1.00800           0   0.00000     -0.301140E-02
      7337 MEMB     61       PMPE     C12      CTL2     0.130000       12.0110           0   0.00000     -0.301140E-02
      7338 MEMB     61       PMPE     H12A     HAL2     0.900000E-01   1.00800           0   0.00000     -0.301140E-02
      7339 MEMB     61       PMPE     H12B     HAL2     0.900000E-01   1.00800           0   0.00000     -0.301140E-02
      7340 MEMB     61       PMPE     C11      CTL2    -0.800000E-01   12.0110           0   0.00000     -0.301140E-02
      7341 MEMB     61       PMPE     H11A     HAL2     0.900000E-01   1.00800           0   0.00000     -0.301140E-02
      7342 MEMB     61       PMPE     H11B     HAL2     0.900000E-01   1.00800           0   0.00000     -0.301140E-02
      7343 MEMB     61       PMPE     P        PL        1.50000       30.9740           0   0.00000     -0.301140E-02
      7344 MEMB     61       PMPE     O13      O2L     -0.780000       15.9994           0   0.00000     -0.301140E-02
      7345 MEMB     61       PMPE     O14      O2L     -0.780000       15.9994           0   0.00000     -0.301140E-02
      7346 MEMB     61       PMPE     O11      OSLP    -0.570000       15.9994           0   0.00000     -0.301140E-02
      7347 MEMB     61       PMPE     O12      OSLP    -0.570000       15.9994           0   0.00000     -0.301140E-02
      7348 MEMB     61       PMPE     C1       CTL2    -0.800000E-01   12.0110           0   0.00000     -0.301140E-02
      7349 MEMB     61       PMPE     HA       HAL2     0.900000E-01   1.00800           0   0.00000     -0.301140E-02
      7350 MEMB     61       PMPE     HB       HAL2     0.900000E-01   1.00800           0   0.00000     -0.301140E-02
      7351 MEMB     61       PMPE     C2       CTL1     0.170000       12.0110           0   0.00000     -0.301140E-02
      7352 MEMB     61       PMPE     HS       HAL1     0.900000E-01   1.00800           0   0.00000     -0.301140E-02
      7353 MEMB     61       PMPE     O21      OSL     -0.490000       15.9994           0   0.00000     -0.301140E-02
      7354 MEMB     61       PMPE     C21      CL       0.900000       12.0110           0   0.00000     -0.301140E-02
      7355 MEMB     61       PMPE     O22      OBL     -0.630000       15.9994           0   0.00000     -0.301140E-02
      7356 MEMB     61       PMPE     C22      CTL2    -0.220000       12.0110           0   0.00000     -0.301140E-02
      7357 MEMB     61       PMPE     H2R      HAL2     0.900000E-01   1.00800           0   0.00000     -0.301140E-02
      7358 MEMB     61       PMPE     H2S      HAL2     0.900000E-01   1.00800           0   0.00000     -0.301140E-02
      7359 MEMB     61       PMPE     C3       CTL2     0.800000E-01   12.0110           0   0.00000     -0.301140E-02
      7360 MEMB     61       PMPE     HX       HAL2     0.900000E-01   1.00800           0   0.00000     -0.301140E-02
      7361 MEMB     61       PMPE     HY       HAL2     0.900000E-01   1.00800           0   0.00000     -0.301140E-02
      7362 MEMB     61       PMPE     O31      OSL     -0.490000       15.9994           0   0.00000     -0.301140E-02
      7363 MEMB     61       PMPE     C31      CL       0.900000       12.0110           0   0.00000     -0.301140E-02
      7364 MEMB     61       PMPE     O32      OBL     -0.630000       15.9994           0   0.00000     -0.301140E-02
      7365 MEMB     61       PMPE     C32      CTL2    -0.220000       12.0110           0   0.00000     -0.301140E-02
      7366 MEMB     61       PMPE     H2X      HAL2     0.900000E-01   1.00800           0   0.00000     -0.301140E-02
      7367 MEMB     61       PMPE     H2Y      HAL2     0.900000E-01   1.00800           0   0.00000     -0.301140E-02
      7368 MEMB     61       PMPE     C23      CTL2    -0.180000       12.0110           0   0.00000     -0.301140E-02
      7369 MEMB     61       PMPE     H3R      HAL2     0.900000E-01   1.00800           0   0.00000     -0.301140E-02
      7370 MEMB     61       PMPE     H3S      HAL2     0.900000E-01   1.00800           0   0.00000     -0.301140E-02
      7371 MEMB     61       PMPE     C24      CTL2    -0.180000       12.0110           0   0.00000     -0.301140E-02
      7372 MEMB     61       PMPE     H4R      HAL2     0.900000E-01   1.00800           0   0.00000     -0.301140E-02
      7373 MEMB     61       PMPE     H4S      HAL2     0.900000E-01   1.00800           0   0.00000     -0.301140E-02
      7374 MEMB     61       PMPE     C25      CTL2    -0.180000       12.0110           0   0.00000     -0.301140E-02
      7375 MEMB     61       PMPE     H5R      HAL2     0.900000E-01   1.00800           0   0.00000     -0.301140E-02
      7376 MEMB     61       PMPE     H5S      HAL2     0.900000E-01   1.00800           0   0.00000     -0.301140E-02
      7377 MEMB     61       PMPE     C26      CTL2    -0.180000       12.0110           0   0.00000     -0.301140E-02
      7378 MEMB     61       PMPE     H6R      HAL2     0.900000E-01   1.00800           0   0.00000     -0.301140E-02
      7379 MEMB     61       PMPE     H6S      HAL2     0.900000E-01   1.00800           0   0.00000     -0.301140E-02
      7380 MEMB     61       PMPE     C27      CTL2    -0.180000       12.0110           0   0.00000     -0.301140E-02
      7381 MEMB     61       PMPE     H7R      HAL2     0.900000E-01   1.00800           0   0.00000     -0.301140E-02
      7382 MEMB     61       PMPE     H7S      HAL2     0.900000E-01   1.00800           0   0.00000     -0.301140E-02
      7383 MEMB     61       PMPE     C28      CTL2    -0.180000       12.0110           0   0.00000     -0.301140E-02
      7384 MEMB     61       PMPE     H8R      HAL2     0.900000E-01   1.00800           0   0.00000     -0.301140E-02
      7385 MEMB     61       PMPE     H8S      HAL2     0.900000E-01   1.00800           0   0.00000     -0.301140E-02
      7386 MEMB     61       PMPE     C29      CG3RC1  -0.900000E-01   12.0110           0   0.00000     -0.301140E-02
      7387 MEMB     61       PMPE     H9R      HGA1     0.900000E-01   1.00800           0   0.00000     -0.301140E-02
      7388 MEMB     61       PMPE     C217     CG3C31  -0.180000       12.0110           0   0.00000     -0.301140E-02
      7389 MEMB     61       PMPE     H17R     HGA2     0.900000E-01   1.00800           0   0.00000     -0.301140E-02
      7390 MEMB     61       PMPE     H17S     HGA2     0.900000E-01   1.00800           0   0.00000     -0.301140E-02
      7391 MEMB     61       PMPE     C210     CG3RC1  -0.900000E-01   12.0110           0   0.00000     -0.301140E-02
      7392 MEMB     61       PMPE     H10R     HGA1     0.900000E-01   1.00800           0   0.00000     -0.301140E-02
      7393 MEMB     61       PMPE     C211     CTL2    -0.180000       12.0110           0   0.00000     -0.301140E-02
      7394 MEMB     61       PMPE     H11R     HAL2     0.900000E-01   1.00800           0   0.00000     -0.301140E-02
      7395 MEMB     61       PMPE     H11S     HAL2     0.900000E-01   1.00800           0   0.00000     -0.301140E-02
      7396 MEMB     61       PMPE     C212     CTL2    -0.180000       12.0110           0   0.00000     -0.301140E-02
      7397 MEMB     61       PMPE     H12R     HAL2     0.900000E-01   1.00800           0   0.00000     -0.301140E-02
      7398 MEMB     61       PMPE     H12S     HAL2     0.900000E-01   1.00800           0   0.00000     -0.301140E-02
      7399 MEMB     61       PMPE     C213     CTL2    -0.180000       12.0110           0   0.00000     -0.301140E-02
      7400 MEMB     61       PMPE     H13R     HAL2     0.900000E-01   1.00800           0   0.00000     -0.301140E-02
      7401 MEMB     61       PMPE     H13S     HAL2     0.900000E-01   1.00800           0   0.00000     -0.301140E-02
      7402 MEMB     61       PMPE     C214     CTL2    -0.180000       12.0110           0   0.00000     -0.301140E-02
      7403 MEMB     61       PMPE     H14R     HAL2     0.900000E-01   1.00800           0   0.00000     -0.301140E-02
      7404 MEMB     61       PMPE     H14S     HAL2     0.900000E-01   1.00800           0   0.00000     -0.301140E-02
      7405 MEMB     61       PMPE     C215     CTL2    -0.180000       12.0110           0   0.00000     -0.301140E-02
      7406 MEMB     61       PMPE     H15R     HAL2     0.900000E-01   1.00800           0   0.00000     -0.301140E-02
      7407 MEMB     61       PMPE     H15S     HAL2     0.900000E-01   1.00800           0   0.00000     -0.301140E-02
      7408 MEMB     61       PMPE     C216     CTL3    -0.270000       12.0110           0   0.00000     -0.301140E-02
      7409 MEMB     61       PMPE     H16R     HAL3     0.900000E-01   1.00800           0   0.00000     -0.301140E-02
      7410 MEMB     61       PMPE     H16S     HAL3     0.900000E-01   1.00800           0   0.00000     -0.301140E-02
      7411 MEMB     61       PMPE     H16T     HAL3     0.900000E-01   1.00800           0   0.00000     -0.301140E-02
      7412 MEMB     61       PMPE     C33      CTL2    -0.180000       12.0110           0   0.00000     -0.301140E-02
      7413 MEMB     61       PMPE     H3X      HAL2     0.900000E-01   1.00800           0   0.00000     -0.301140E-02
      7414 MEMB     61       PMPE     H3Y      HAL2     0.900000E-01   1.00800           0   0.00000     -0.301140E-02
      7415 MEMB     61       PMPE     C34      CTL2    -0.180000       12.0110           0   0.00000     -0.301140E-02
      7416 MEMB     61       PMPE     H4X      HAL2     0.900000E-01   1.00800           0   0.00000     -0.301140E-02
      7417 MEMB     61       PMPE     H4Y      HAL2     0.900000E-01   1.00800           0   0.00000     -0.301140E-02
      7418 MEMB     61       PMPE     C35      CTL2    -0.180000       12.0110           0   0.00000     -0.301140E-02
      7419 MEMB     61       PMPE     H5X      HAL2     0.900000E-01   1.00800           0   0.00000     -0.301140E-02
      7420 MEMB     61       PMPE     H5Y      HAL2     0.900000E-01   1.00800           0   0.00000     -0.301140E-02
      7421 MEMB     61       PMPE     C36      CTL2    -0.180000       12.0110           0   0.00000     -0.301140E-02
      7422 MEMB     61       PMPE     H6X      HAL2     0.900000E-01   1.00800           0   0.00000     -0.301140E-02
      7423 MEMB     61       PMPE     H6Y      HAL2     0.900000E-01   1.00800           0   0.00000     -0.301140E-02
      7424 MEMB     61       PMPE     C37      CTL2    -0.180000       12.0110           0   0.00000     -0.301140E-02
      7425 MEMB     61       PMPE     H7X      HAL2     0.900000E-01   1.00800           0   0.00000     -0.301140E-02
      7426 MEMB     61       PMPE     H7Y      HAL2     0.900000E-01   1.00800           0   0.00000     -0.301140E-02
      7427 MEMB     61       PMPE     C38      CTL2    -0.180000       12.0110           0   0.00000     -0.301140E-02
      7428 MEMB     61       PMPE     H8X      HAL2     0.900000E-01   1.00800           0   0.00000     -0.301140E-02
      7429 MEMB     61       PMPE     H8Y      HAL2     0.900000E-01   1.00800           0   0.00000     -0.301140E-02
      7430 MEMB     61       PMPE     C39      CTL2    -0.180000       12.0110           0   0.00000     -0.301140E-02
      7431 MEMB     61       PMPE     H9X      HAL2     0.900000E-01   1.00800           0   0.00000     -0.301140E-02
      7432 MEMB     61       PMPE     H9Y      HAL2     0.900000E-01   1.00800           0   0.00000     -0.301140E-02
      7433 MEMB     61       PMPE     C310     CTL2    -0.180000       12.0110           0   0.00000     -0.301140E-02
      7434 MEMB     61       PMPE     H10X     HAL2     0.900000E-01   1.00800           0   0.00000     -0.301140E-02
      7435 MEMB     61       PMPE     H10Y     HAL2     0.900000E-01   1.00800           0   0.00000     -0.301140E-02
      7436 MEMB     61       PMPE     C311     CTL2    -0.180000       12.0110           0   0.00000     -0.301140E-02
      7437 MEMB     61       PMPE     H11X     HAL2     0.900000E-01   1.00800           0   0.00000     -0.301140E-02
      7438 MEMB     61       PMPE     H11Y     HAL2     0.900000E-01   1.00800           0   0.00000     -0.301140E-02
      7439 MEMB     61       PMPE     C312     CTL2    -0.180000       12.0110           0   0.00000     -0.301140E-02
      7440 MEMB     61       PMPE     H12X     HAL2     0.900000E-01   1.00800           0   0.00000     -0.301140E-02
      7441 MEMB     61       PMPE     H12Y     HAL2     0.900000E-01   1.00800           0   0.00000     -0.301140E-02
      7442 MEMB     61       PMPE     C313     CTL2    -0.180000       12.0110           0   0.00000     -0.301140E-02
      7443 MEMB     61       PMPE     H13X     HAL2     0.900000E-01   1.00800           0   0.00000     -0.301140E-02
      7444 MEMB     61       PMPE     H13Y     HAL2     0.900000E-01   1.00800           0   0.00000     -0.301140E-02
      7445 MEMB     61       PMPE     C314     CTL2    -0.180000       12.0110           0   0.00000     -0.301140E-02
      7446 MEMB     61       PMPE     H14X     HAL2     0.900000E-01   1.00800           0   0.00000     -0.301140E-02
      7447 MEMB     61       PMPE     H14Y     HAL2     0.900000E-01   1.00800           0   0.00000     -0.301140E-02
      7448 MEMB     61       PMPE     C315     CTL2    -0.180000       12.0110           0   0.00000     -0.301140E-02
      7449 MEMB     61       PMPE     H15X     HAL2     0.900000E-01   1.00800           0   0.00000     -0.301140E-02
      7450 MEMB     61       PMPE     H15Y     HAL2     0.900000E-01   1.00800           0   0.00000     -0.301140E-02
      7451 MEMB     61       PMPE     C316     CTL3    -0.270000       12.0110           0   0.00000     -0.301140E-02
      7452 MEMB     61       PMPE     H16X     HAL3     0.900000E-01   1.00800           0   0.00000     -0.301140E-02
      7453 MEMB     61       PMPE     H16Y     HAL3     0.900000E-01   1.00800           0   0.00000     -0.301140E-02
      7454 MEMB     61       PMPE     H16Z     HAL3     0.900000E-01   1.00800           0   0.00000     -0.301140E-02
      7455 MEMB     62       PMPG     C13      CTL2     0.500000E-01   12.0110           0   0.00000     -0.301140E-02
      7456 MEMB     62       PMPG     H13A     HAL2     0.900000E-01   1.00800           0   0.00000     -0.301140E-02
      7457 MEMB     62       PMPG     H13B     HAL2     0.900000E-01   1.00800           0   0.00000     -0.301140E-02
      7458 MEMB     62       PMPG     OC3      OHL     -0.660000       15.9994           0   0.00000     -0.301140E-02
      7459 MEMB     62       PMPG     HO3      HOL      0.430000       1.00800           0   0.00000     -0.301140E-02
      7460 MEMB     62       PMPG     C12      CTL1     0.140000       12.0110           0   0.00000     -0.301140E-02
      7461 MEMB     62       PMPG     H12A     HAL1     0.900000E-01   1.00800           0   0.00000     -0.301140E-02
      7462 MEMB     62       PMPG     OC2      OHL     -0.660000       15.9994           0   0.00000     -0.301140E-02
      7463 MEMB     62       PMPG     HO2      HOL      0.430000       1.00800           0   0.00000     -0.301140E-02
      7464 MEMB     62       PMPG     C11      CTL2    -0.800000E-01   12.0110           0   0.00000     -0.301140E-02
      7465 MEMB     62       PMPG     H11A     HAL2     0.900000E-01   1.00800           0   0.00000     -0.301140E-02
      7466 MEMB     62       PMPG     H11B     HAL2     0.900000E-01   1.00800           0   0.00000     -0.301140E-02
      7467 MEMB     62       PMPG     P        PL        1.50000       30.9740           0   0.00000     -0.301140E-02
      7468 MEMB     62       PMPG     O13      O2L     -0.780000       15.9994           0   0.00000     -0.301140E-02
      7469 MEMB     62       PMPG     O14      O2L     -0.780000       15.9994           0   0.00000     -0.301140E-02
      7470 MEMB     62       PMPG     O11      OSLP    -0.570000       15.9994           0   0.00000     -0.301140E-02
      7471 MEMB     62       PMPG     O12      OSLP    -0.570000       15.9994           0   0.00000     -0.301140E-02
      7472 MEMB     62       PMPG     C1       CTL2    -0.800000E-01   12.0110           0   0.00000     -0.301140E-02
      7473 MEMB     62       PMPG     HA       HAL2     0.900000E-01   1.00800           0   0.00000     -0.301140E-02
      7474 MEMB     62       PMPG     HB       HAL2     0.900000E-01   1.00800           0   0.00000     -0.301140E-02
      7475 MEMB     62       PMPG     C2       CTL1     0.170000       12.0110           0   0.00000     -0.301140E-02
      7476 MEMB     62       PMPG     HS       HAL1     0.900000E-01   1.00800           0   0.00000     -0.301140E-02
      7477 MEMB     62       PMPG     O21      OSL     -0.490000       15.9994           0   0.00000     -0.301140E-02
      7478 MEMB     62       PMPG     C21      CL       0.900000       12.0110           0   0.00000     -0.301140E-02
      7479 MEMB     62       PMPG     O22      OBL     -0.630000       15.9994           0   0.00000     -0.301140E-02
      7480 MEMB     62       PMPG     C22      CTL2    -0.220000       12.0110           0   0.00000     -0.301140E-02
      7481 MEMB     62       PMPG     H2R      HAL2     0.900000E-01   1.00800           0   0.00000     -0.301140E-02
      7482 MEMB     62       PMPG     H2S      HAL2     0.900000E-01   1.00800           0   0.00000     -0.301140E-02
      7483 MEMB     62       PMPG     C3       CTL2     0.800000E-01   12.0110           0   0.00000     -0.301140E-02
      7484 MEMB     62       PMPG     HX       HAL2     0.900000E-01   1.00800           0   0.00000     -0.301140E-02
      7485 MEMB     62       PMPG     HY       HAL2     0.900000E-01   1.00800           0   0.00000     -0.301140E-02
      7486 MEMB     62       PMPG     O31      OSL     -0.490000       15.9994           0   0.00000     -0.301140E-02
      7487 MEMB     62       PMPG     C31      CL       0.900000       12.0110           0   0.00000     -0.301140E-02
      7488 MEMB     62       PMPG     O32      OBL     -0.630000       15.9994           0   0.00000     -0.301140E-02
      7489 MEMB     62       PMPG     C32      CTL2    -0.220000       12.0110           0   0.00000     -0.301140E-02
      7490 MEMB     62       PMPG     H2X      HAL2     0.900000E-01   1.00800           0   0.00000     -0.301140E-02
      7491 MEMB     62       PMPG     H2Y      HAL2     0.900000E-01   1.00800           0   0.00000     -0.301140E-02
      7492 MEMB     62       PMPG     C23      CTL2    -0.180000       12.0110           0   0.00000     -0.301140E-02
      7493 MEMB     62       PMPG     H3R      HAL2     0.900000E-01   1.00800           0   0.00000     -0.301140E-02
      7494 MEMB     62       PMPG     H3S      HAL2     0.900000E-01   1.00800           0   0.00000     -0.301140E-02
      7495 MEMB     62       PMPG     C24      CTL2    -0.180000       12.0110           0   0.00000     -0.301140E-02
      7496 MEMB     62       PMPG     H4R      HAL2     0.900000E-01   1.00800           0   0.00000     -0.301140E-02
      7497 MEMB     62       PMPG     H4S      HAL2     0.900000E-01   1.00800           0   0.00000     -0.301140E-02
      7498 MEMB     62       PMPG     C25      CTL2    -0.180000       12.0110           0   0.00000     -0.301140E-02
      7499 MEMB     62       PMPG     H5R      HAL2     0.900000E-01   1.00800           0   0.00000     -0.301140E-02
      7500 MEMB     62       PMPG     H5S      HAL2     0.900000E-01   1.00800           0   0.00000     -0.301140E-02
      7501 MEMB     62       PMPG     C26      CTL2    -0.180000       12.0110           0   0.00000     -0.301140E-02
      7502 MEMB     62       PMPG     H6R      HAL2     0.900000E-01   1.00800           0   0.00000     -0.301140E-02
      7503 MEMB     62       PMPG     H6S      HAL2     0.900000E-01   1.00800           0   0.00000     -0.301140E-02
      7504 MEMB     62       PMPG     C27      CTL2    -0.180000       12.0110           0   0.00000     -0.301140E-02
      7505 MEMB     62       PMPG     H7R      HAL2     0.900000E-01   1.00800           0   0.00000     -0.301140E-02
      7506 MEMB     62       PMPG     H7S      HAL2     0.900000E-01   1.00800           0   0.00000     -0.301140E-02
      7507 MEMB     62       PMPG     C28      CTL2    -0.180000       12.0110           0   0.00000     -0.301140E-02
      7508 MEMB     62       PMPG     H8R      HAL2     0.900000E-01   1.00800           0   0.00000     -0.301140E-02
      7509 MEMB     62       PMPG     H8S      HAL2     0.900000E-01   1.00800           0   0.00000     -0.301140E-02
      7510 MEMB     62       PMPG     C29      CG3RC1  -0.900000E-01   12.0110           0   0.00000     -0.301140E-02
      7511 MEMB     62       PMPG     H9R      HGA1     0.900000E-01   1.00800           0   0.00000     -0.301140E-02
      7512 MEMB     62       PMPG     C217     CG3C31  -0.180000       12.0110           0   0.00000     -0.301140E-02
      7513 MEMB     62       PMPG     H17R     HGA2     0.900000E-01   1.00800           0   0.00000     -0.301140E-02
      7514 MEMB     62       PMPG     H17S     HGA2     0.900000E-01   1.00800           0   0.00000     -0.301140E-02
      7515 MEMB     62       PMPG     C210     CG3RC1  -0.900000E-01   12.0110           0   0.00000     -0.301140E-02
      7516 MEMB     62       PMPG     H10R     HGA1     0.900000E-01   1.00800           0   0.00000     -0.301140E-02
      7517 MEMB     62       PMPG     C211     CTL2    -0.180000       12.0110           0   0.00000     -0.301140E-02
      7518 MEMB     62       PMPG     H11R     HAL2     0.900000E-01   1.00800           0   0.00000     -0.301140E-02
      7519 MEMB     62       PMPG     H11S     HAL2     0.900000E-01   1.00800           0   0.00000     -0.301140E-02
      7520 MEMB     62       PMPG     C212     CTL2    -0.180000       12.0110           0   0.00000     -0.301140E-02
      7521 MEMB     62       PMPG     H12R     HAL2     0.900000E-01   1.00800           0   0.00000     -0.301140E-02
      7522 MEMB     62       PMPG     H12S     HAL2     0.900000E-01   1.00800           0   0.00000     -0.301140E-02
      7523 MEMB     62       PMPG     C213     CTL2    -0.180000       12.0110           0   0.00000     -0.301140E-02
      7524 MEMB     62       PMPG     H13R     HAL2     0.900000E-01   1.00800           0   0.00000     -0.301140E-02
      7525 MEMB     62       PMPG     H13S     HAL2     0.900000E-01   1.00800           0   0.00000     -0.301140E-02
      7526 MEMB     62       PMPG     C214     CTL2    -0.180000       12.0110           0   0.00000     -0.301140E-02
      7527 MEMB     62       PMPG     H14R     HAL2     0.900000E-01   1.00800           0   0.00000     -0.301140E-02
      7528 MEMB     62       PMPG     H14S     HAL2     0.900000E-01   1.00800           0   0.00000     -0.301140E-02
      7529 MEMB     62       PMPG     C215     CTL2    -0.180000       12.0110           0   0.00000     -0.301140E-02
      7530 MEMB     62       PMPG     H15R     HAL2     0.900000E-01   1.00800           0   0.00000     -0.301140E-02
      7531 MEMB     62       PMPG     H15S     HAL2     0.900000E-01   1.00800           0   0.00000     -0.301140E-02
      7532 MEMB     62       PMPG     C216     CTL3    -0.270000       12.0110           0   0.00000     -0.301140E-02
      7533 MEMB     62       PMPG     H16R     HAL3     0.900000E-01   1.00800           0   0.00000     -0.301140E-02
      7534 MEMB     62       PMPG     H16S     HAL3     0.900000E-01   1.00800           0   0.00000     -0.301140E-02
      7535 MEMB     62       PMPG     H16T     HAL3     0.900000E-01   1.00800           0   0.00000     -0.301140E-02
      7536 MEMB     62       PMPG     C33      CTL2    -0.180000       12.0110           0   0.00000     -0.301140E-02
      7537 MEMB     62       PMPG     H3X      HAL2     0.900000E-01   1.00800           0   0.00000     -0.301140E-02
      7538 MEMB     62       PMPG     H3Y      HAL2     0.900000E-01   1.00800           0   0.00000     -0.301140E-02
      7539 MEMB     62       PMPG     C34      CTL2    -0.180000       12.0110           0   0.00000     -0.301140E-02
      7540 MEMB     62       PMPG     H4X      HAL2     0.900000E-01   1.00800           0   0.00000     -0.301140E-02
      7541 MEMB     62       PMPG     H4Y      HAL2     0.900000E-01   1.00800           0   0.00000     -0.301140E-02
      7542 MEMB     62       PMPG     C35      CTL2    -0.180000       12.0110           0   0.00000     -0.301140E-02
      7543 MEMB     62       PMPG     H5X      HAL2     0.900000E-01   1.00800           0   0.00000     -0.301140E-02
      7544 MEMB     62       PMPG     H5Y      HAL2     0.900000E-01   1.00800           0   0.00000     -0.301140E-02
      7545 MEMB     62       PMPG     C36      CTL2    -0.180000       12.0110           0   0.00000     -0.301140E-02
      7546 MEMB     62       PMPG     H6X      HAL2     0.900000E-01   1.00800           0   0.00000     -0.301140E-02
      7547 MEMB     62       PMPG     H6Y      HAL2     0.900000E-01   1.00800           0   0.00000     -0.301140E-02
      7548 MEMB     62       PMPG     C37      CTL2    -0.180000       12.0110           0   0.00000     -0.301140E-02
      7549 MEMB     62       PMPG     H7X      HAL2     0.900000E-01   1.00800           0   0.00000     -0.301140E-02
      7550 MEMB     62       PMPG     H7Y      HAL2     0.900000E-01   1.00800           0   0.00000     -0.301140E-02
      7551 MEMB     62       PMPG     C38      CTL2    -0.180000       12.0110           0   0.00000     -0.301140E-02
      7552 MEMB     62       PMPG     H8X      HAL2     0.900000E-01   1.00800           0   0.00000     -0.301140E-02
      7553 MEMB     62       PMPG     H8Y      HAL2     0.900000E-01   1.00800           0   0.00000     -0.301140E-02
      7554 MEMB     62       PMPG     C39      CTL2    -0.180000       12.0110           0   0.00000     -0.301140E-02
      7555 MEMB     62       PMPG     H9X      HAL2     0.900000E-01   1.00800           0   0.00000     -0.301140E-02
      7556 MEMB     62       PMPG     H9Y      HAL2     0.900000E-01   1.00800           0   0.00000     -0.301140E-02
      7557 MEMB     62       PMPG     C310     CTL2    -0.180000       12.0110           0   0.00000     -0.301140E-02
      7558 MEMB     62       PMPG     H10X     HAL2     0.900000E-01   1.00800           0   0.00000     -0.301140E-02
      7559 MEMB     62       PMPG     H10Y     HAL2     0.900000E-01   1.00800           0   0.00000     -0.301140E-02
      7560 MEMB     62       PMPG     C311     CTL2    -0.180000       12.0110           0   0.00000     -0.301140E-02
      7561 MEMB     62       PMPG     H11X     HAL2     0.900000E-01   1.00800           0   0.00000     -0.301140E-02
      7562 MEMB     62       PMPG     H11Y     HAL2     0.900000E-01   1.00800           0   0.00000     -0.301140E-02
      7563 MEMB     62       PMPG     C312     CTL2    -0.180000       12.0110           0   0.00000     -0.301140E-02
      7564 MEMB     62       PMPG     H12X     HAL2     0.900000E-01   1.00800           0   0.00000     -0.301140E-02
      7565 MEMB     62       PMPG     H12Y     HAL2     0.900000E-01   1.00800           0   0.00000     -0.301140E-02
      7566 MEMB     62       PMPG     C313     CTL2    -0.180000       12.0110           0   0.00000     -0.301140E-02
      7567 MEMB     62       PMPG     H13X     HAL2     0.900000E-01   1.00800           0   0.00000     -0.301140E-02
      7568 MEMB     62       PMPG     H13Y     HAL2     0.900000E-01   1.00800           0   0.00000     -0.301140E-02
      7569 MEMB     62       PMPG     C314     CTL2    -0.180000       12.0110           0   0.00000     -0.301140E-02
      7570 MEMB     62       PMPG     H14X     HAL2     0.900000E-01   1.00800           0   0.00000     -0.301140E-02
      7571 MEMB     62       PMPG     H14Y     HAL2     0.900000E-01   1.00800           0   0.00000     -0.301140E-02
      7572 MEMB     62       PMPG     C315     CTL2    -0.180000       12.0110           0   0.00000     -0.301140E-02
      7573 MEMB     62       PMPG     H15X     HAL2     0.900000E-01   1.00800           0   0.00000     -0.301140E-02
      7574 MEMB     62       PMPG     H15Y     HAL2     0.900000E-01   1.00800           0   0.00000     -0.301140E-02
      7575 MEMB     62       PMPG     C316     CTL3    -0.270000       12.0110           0   0.00000     -0.301140E-02
      7576 MEMB     62       PMPG     H16X     HAL3     0.900000E-01   1.00800           0   0.00000     -0.301140E-02
      7577 MEMB     62       PMPG     H16Y     HAL3     0.900000E-01   1.00800           0   0.00000     -0.301140E-02
      7578 MEMB     62       PMPG     H16Z     HAL3     0.900000E-01   1.00800           0   0.00000     -0.301140E-02
      7579 MEMB     63       POPE     N        NH3L    -0.300000       14.0070           0   0.00000     -0.301140E-02
      7580 MEMB     63       POPE     HN1      HCL      0.330000       1.00800           0   0.00000     -0.301140E-02
      7581 MEMB     63       POPE     HN2      HCL      0.330000       1.00800           0   0.00000     -0.301140E-02
      7582 MEMB     63       POPE     HN3      HCL      0.330000       1.00800           0   0.00000     -0.301140E-02
      7583 MEMB     63       POPE     C12      CTL2     0.130000       12.0110           0   0.00000     -0.301140E-02
      7584 MEMB     63       POPE     H12A     HAL2     0.900000E-01   1.00800           0   0.00000     -0.301140E-02
      7585 MEMB     63       POPE     H12B     HAL2     0.900000E-01   1.00800           0   0.00000     -0.301140E-02
      7586 MEMB     63       POPE     C11      CTL2    -0.800000E-01   12.0110           0   0.00000     -0.301140E-02
      7587 MEMB     63       POPE     H11A     HAL2     0.900000E-01   1.00800           0   0.00000     -0.301140E-02
      7588 MEMB     63       POPE     H11B     HAL2     0.900000E-01   1.00800           0   0.00000     -0.301140E-02
      7589 MEMB     63       POPE     P        PL        1.50000       30.9740           0   0.00000     -0.301140E-02
      7590 MEMB     63       POPE     O13      O2L     -0.780000       15.9994           0   0.00000     -0.301140E-02
      7591 MEMB     63       POPE     O14      O2L     -0.780000       15.9994           0   0.00000     -0.301140E-02
      7592 MEMB     63       POPE     O11      OSLP    -0.570000       15.9994           0   0.00000     -0.301140E-02
      7593 MEMB     63       POPE     O12      OSLP    -0.570000       15.9994           0   0.00000     -0.301140E-02
      7594 MEMB     63       POPE     C1       CTL2    -0.800000E-01   12.0110           0   0.00000     -0.301140E-02
      7595 MEMB     63       POPE     HA       HAL2     0.900000E-01   1.00800           0   0.00000     -0.301140E-02
      7596 MEMB     63       POPE     HB       HAL2     0.900000E-01   1.00800           0   0.00000     -0.301140E-02
      7597 MEMB     63       POPE     C2       CTL1     0.170000       12.0110           0   0.00000     -0.301140E-02
      7598 MEMB     63       POPE     HS       HAL1     0.900000E-01   1.00800           0   0.00000     -0.301140E-02
      7599 MEMB     63       POPE     O21      OSL     -0.490000       15.9994           0   0.00000     -0.301140E-02
      7600 MEMB     63       POPE     C21      CL       0.900000       12.0110           0   0.00000     -0.301140E-02
      7601 MEMB     63       POPE     O22      OBL     -0.630000       15.9994           0   0.00000     -0.301140E-02
      7602 MEMB     63       POPE     C22      CTL2    -0.220000       12.0110           0   0.00000     -0.301140E-02
      7603 MEMB     63       POPE     H2R      HAL2     0.900000E-01   1.00800           0   0.00000     -0.301140E-02
      7604 MEMB     63       POPE     H2S      HAL2     0.900000E-01   1.00800           0   0.00000     -0.301140E-02
      7605 MEMB     63       POPE     C3       CTL2     0.800000E-01   12.0110           0   0.00000     -0.301140E-02
      7606 MEMB     63       POPE     HX       HAL2     0.900000E-01   1.00800           0   0.00000     -0.301140E-02
      7607 MEMB     63       POPE     HY       HAL2     0.900000E-01   1.00800           0   0.00000     -0.301140E-02
      7608 MEMB     63       POPE     O31      OSL     -0.490000       15.9994           0   0.00000     -0.301140E-02
      7609 MEMB     63       POPE     C31      CL       0.900000       12.0110           0   0.00000     -0.301140E-02
      7610 MEMB     63       POPE     O32      OBL     -0.630000       15.9994           0   0.00000     -0.301140E-02
      7611 MEMB     63       POPE     C32      CTL2    -0.220000       12.0110           0   0.00000     -0.301140E-02
      7612 MEMB     63       POPE     H2X      HAL2     0.900000E-01   1.00800           0   0.00000     -0.301140E-02
      7613 MEMB     63       POPE     H2Y      HAL2     0.900000E-01   1.00800           0   0.00000     -0.301140E-02
      7614 MEMB     63       POPE     C23      CTL2    -0.180000       12.0110           0   0.00000     -0.301140E-02
      7615 MEMB     63       POPE     H3R      HAL2     0.900000E-01   1.00800           0   0.00000     -0.301140E-02
      7616 MEMB     63       POPE     H3S      HAL2     0.900000E-01   1.00800           0   0.00000     -0.301140E-02
      7617 MEMB     63       POPE     C24      CTL2    -0.180000       12.0110           0   0.00000     -0.301140E-02
      7618 MEMB     63       POPE     H4R      HAL2     0.900000E-01   1.00800           0   0.00000     -0.301140E-02
      7619 MEMB     63       POPE     H4S      HAL2     0.900000E-01   1.00800           0   0.00000     -0.301140E-02
      7620 MEMB     63       POPE     C25      CTL2    -0.180000       12.0110           0   0.00000     -0.301140E-02
      7621 MEMB     63       POPE     H5R      HAL2     0.900000E-01   1.00800           0   0.00000     -0.301140E-02
      7622 MEMB     63       POPE     H5S      HAL2     0.900000E-01   1.00800           0   0.00000     -0.301140E-02
      7623 MEMB     63       POPE     C26      CTL2    -0.180000       12.0110           0   0.00000     -0.301140E-02
      7624 MEMB     63       POPE     H6R      HAL2     0.900000E-01   1.00800           0   0.00000     -0.301140E-02
      7625 MEMB     63       POPE     H6S      HAL2     0.900000E-01   1.00800           0   0.00000     -0.301140E-02
      7626 MEMB     63       POPE     C27      CTL2    -0.180000       12.0110           0   0.00000     -0.301140E-02
      7627 MEMB     63       POPE     H7R      HAL2     0.900000E-01   1.00800           0   0.00000     -0.301140E-02
      7628 MEMB     63       POPE     H7S      HAL2     0.900000E-01   1.00800           0   0.00000     -0.301140E-02
      7629 MEMB     63       POPE     C28      CTL2    -0.180000       12.0110           0   0.00000     -0.301140E-02
      7630 MEMB     63       POPE     H8R      HAL2     0.900000E-01   1.00800           0   0.00000     -0.301140E-02
      7631 MEMB     63       POPE     H8S      HAL2     0.900000E-01   1.00800           0   0.00000     -0.301140E-02
      7632 MEMB     63       POPE     C29      CEL1    -0.150000       12.0110           0   0.00000     -0.301140E-02
      7633 MEMB     63       POPE     H91      HEL1     0.150000       1.00800           0   0.00000     -0.301140E-02
      7634 MEMB     63       POPE     C210     CEL1    -0.150000       12.0110           0   0.00000     -0.301140E-02
      7635 MEMB     63       POPE     H101     HEL1     0.150000       1.00800           0   0.00000     -0.301140E-02
      7636 MEMB     63       POPE     C211     CTL2    -0.180000       12.0110           0   0.00000     -0.301140E-02
      7637 MEMB     63       POPE     H11R     HAL2     0.900000E-01   1.00800           0   0.00000     -0.301140E-02
      7638 MEMB     63       POPE     H11S     HAL2     0.900000E-01   1.00800           0   0.00000     -0.301140E-02
      7639 MEMB     63       POPE     C212     CTL2    -0.180000       12.0110           0   0.00000     -0.301140E-02
      7640 MEMB     63       POPE     H12R     HAL2     0.900000E-01   1.00800           0   0.00000     -0.301140E-02
      7641 MEMB     63       POPE     H12S     HAL2     0.900000E-01   1.00800           0   0.00000     -0.301140E-02
      7642 MEMB     63       POPE     C213     CTL2    -0.180000       12.0110           0   0.00000     -0.301140E-02
      7643 MEMB     63       POPE     H13R     HAL2     0.900000E-01   1.00800           0   0.00000     -0.301140E-02
      7644 MEMB     63       POPE     H13S     HAL2     0.900000E-01   1.00800           0   0.00000     -0.301140E-02
      7645 MEMB     63       POPE     C214     CTL2    -0.180000       12.0110           0   0.00000     -0.301140E-02
      7646 MEMB     63       POPE     H14R     HAL2     0.900000E-01   1.00800           0   0.00000     -0.301140E-02
      7647 MEMB     63       POPE     H14S     HAL2     0.900000E-01   1.00800           0   0.00000     -0.301140E-02
      7648 MEMB     63       POPE     C215     CTL2    -0.180000       12.0110           0   0.00000     -0.301140E-02
      7649 MEMB     63       POPE     H15R     HAL2     0.900000E-01   1.00800           0   0.00000     -0.301140E-02
      7650 MEMB     63       POPE     H15S     HAL2     0.900000E-01   1.00800           0   0.00000     -0.301140E-02
      7651 MEMB     63       POPE     C216     CTL2    -0.180000       12.0110           0   0.00000     -0.301140E-02
      7652 MEMB     63       POPE     H16R     HAL2     0.900000E-01   1.00800           0   0.00000     -0.301140E-02
      7653 MEMB     63       POPE     H16S     HAL2     0.900000E-01   1.00800           0   0.00000     -0.301140E-02
      7654 MEMB     63       POPE     C217     CTL2    -0.180000       12.0110           0   0.00000     -0.301140E-02
      7655 MEMB     63       POPE     H17R     HAL2     0.900000E-01   1.00800           0   0.00000     -0.301140E-02
      7656 MEMB     63       POPE     H17S     HAL2     0.900000E-01   1.00800           0   0.00000     -0.301140E-02
      7657 MEMB     63       POPE     C218     CTL3    -0.270000       12.0110           0   0.00000     -0.301140E-02
      7658 MEMB     63       POPE     H18R     HAL3     0.900000E-01   1.00800           0   0.00000     -0.301140E-02
      7659 MEMB     63       POPE     H18S     HAL3     0.900000E-01   1.00800           0   0.00000     -0.301140E-02
      7660 MEMB     63       POPE     H18T     HAL3     0.900000E-01   1.00800           0   0.00000     -0.301140E-02
      7661 MEMB     63       POPE     C33      CTL2    -0.180000       12.0110           0   0.00000     -0.301140E-02
      7662 MEMB     63       POPE     H3X      HAL2     0.900000E-01   1.00800           0   0.00000     -0.301140E-02
      7663 MEMB     63       POPE     H3Y      HAL2     0.900000E-01   1.00800           0   0.00000     -0.301140E-02
      7664 MEMB     63       POPE     C34      CTL2    -0.180000       12.0110           0   0.00000     -0.301140E-02
      7665 MEMB     63       POPE     H4X      HAL2     0.900000E-01   1.00800           0   0.00000     -0.301140E-02
      7666 MEMB     63       POPE     H4Y      HAL2     0.900000E-01   1.00800           0   0.00000     -0.301140E-02
      7667 MEMB     63       POPE     C35      CTL2    -0.180000       12.0110           0   0.00000     -0.301140E-02
      7668 MEMB     63       POPE     H5X      HAL2     0.900000E-01   1.00800           0   0.00000     -0.301140E-02
      7669 MEMB     63       POPE     H5Y      HAL2     0.900000E-01   1.00800           0   0.00000     -0.301140E-02
      7670 MEMB     63       POPE     C36      CTL2    -0.180000       12.0110           0   0.00000     -0.301140E-02
      7671 MEMB     63       POPE     H6X      HAL2     0.900000E-01   1.00800           0   0.00000     -0.301140E-02
      7672 MEMB     63       POPE     H6Y      HAL2     0.900000E-01   1.00800           0   0.00000     -0.301140E-02
      7673 MEMB     63       POPE     C37      CTL2    -0.180000       12.0110           0   0.00000     -0.301140E-02
      7674 MEMB     63       POPE     H7X      HAL2     0.900000E-01   1.00800           0   0.00000     -0.301140E-02
      7675 MEMB     63       POPE     H7Y      HAL2     0.900000E-01   1.00800           0   0.00000     -0.301140E-02
      7676 MEMB     63       POPE     C38      CTL2    -0.180000       12.0110           0   0.00000     -0.301140E-02
      7677 MEMB     63       POPE     H8X      HAL2     0.900000E-01   1.00800           0   0.00000     -0.301140E-02
      7678 MEMB     63       POPE     H8Y      HAL2     0.900000E-01   1.00800           0   0.00000     -0.301140E-02
      7679 MEMB     63       POPE     C39      CTL2    -0.180000       12.0110           0   0.00000     -0.301140E-02
      7680 MEMB     63       POPE     H9X      HAL2     0.900000E-01   1.00800           0   0.00000     -0.301140E-02
      7681 MEMB     63       POPE     H9Y      HAL2     0.900000E-01   1.00800           0   0.00000     -0.301140E-02
      7682 MEMB     63       POPE     C310     CTL2    -0.180000       12.0110           0   0.00000     -0.301140E-02
      7683 MEMB     63       POPE     H10X     HAL2     0.900000E-01   1.00800           0   0.00000     -0.301140E-02
      7684 MEMB     63       POPE     H10Y     HAL2     0.900000E-01   1.00800           0   0.00000     -0.301140E-02
      7685 MEMB     63       POPE     C311     CTL2    -0.180000       12.0110           0   0.00000     -0.301140E-02
      7686 MEMB     63       POPE     H11X     HAL2     0.900000E-01   1.00800           0   0.00000     -0.301140E-02
      7687 MEMB     63       POPE     H11Y     HAL2     0.900000E-01   1.00800           0   0.00000     -0.301140E-02
      7688 MEMB     63       POPE     C312     CTL2    -0.180000       12.0110           0   0.00000     -0.301140E-02
      7689 MEMB     63       POPE     H12X     HAL2     0.900000E-01   1.00800           0   0.00000     -0.301140E-02
      7690 MEMB     63       POPE     H12Y     HAL2     0.900000E-01   1.00800           0   0.00000     -0.301140E-02
      7691 MEMB     63       POPE     C313     CTL2    -0.180000       12.0110           0   0.00000     -0.301140E-02
      7692 MEMB     63       POPE     H13X     HAL2     0.900000E-01   1.00800           0   0.00000     -0.301140E-02
      7693 MEMB     63       POPE     H13Y     HAL2     0.900000E-01   1.00800           0   0.00000     -0.301140E-02
      7694 MEMB     63       POPE     C314     CTL2    -0.180000       12.0110           0   0.00000     -0.301140E-02
      7695 MEMB     63       POPE     H14X     HAL2     0.900000E-01   1.00800           0   0.00000     -0.301140E-02
      7696 MEMB     63       POPE     H14Y     HAL2     0.900000E-01   1.00800           0   0.00000     -0.301140E-02
      7697 MEMB     63       POPE     C315     CTL2    -0.180000       12.0110           0   0.00000     -0.301140E-02
      7698 MEMB     63       POPE     H15X     HAL2     0.900000E-01   1.00800           0   0.00000     -0.301140E-02
      7699 MEMB     63       POPE     H15Y     HAL2     0.900000E-01   1.00800           0   0.00000     -0.301140E-02
      7700 MEMB     63       POPE     C316     CTL3    -0.270000       12.0110           0   0.00000     -0.301140E-02
      7701 MEMB     63       POPE     H16X     HAL3     0.900000E-01   1.00800           0   0.00000     -0.301140E-02
      7702 MEMB     63       POPE     H16Y     HAL3     0.900000E-01   1.00800           0   0.00000     -0.301140E-02
      7703 MEMB     63       POPE     H16Z     HAL3     0.900000E-01   1.00800           0   0.00000     -0.301140E-02
      7704 MEMB     64       PVCL2    C3       CTL2    -0.800000E-01   12.0110           0   0.00000     -0.301140E-02
      7705 MEMB     64       PVCL2    HG31     HAL2     0.900000E-01   1.00800           0   0.00000     -0.301140E-02
      7706 MEMB     64       PVCL2    HG32     HAL2     0.900000E-01   1.00800           0   0.00000     -0.301140E-02
      7707 MEMB     64       PVCL2    P3       PL        1.50000       30.9740           0   0.00000     -0.301140E-02
      7708 MEMB     64       PVCL2    OP33     O2L     -0.780000       15.9994           0   0.00000     -0.301140E-02
      7709 MEMB     64       PVCL2    OP34     O2L     -0.780000       15.9994           0   0.00000     -0.301140E-02
      7710 MEMB     64       PVCL2    OP31     OSLP    -0.570000       15.9994           0   0.00000     -0.301140E-02
      7711 MEMB     64       PVCL2    OP32     OSLP    -0.570000       15.9994           0   0.00000     -0.301140E-02
      7712 MEMB     64       PVCL2    C31      CTL2    -0.800000E-01   12.0110           0   0.00000     -0.301140E-02
      7713 MEMB     64       PVCL2    H31J     HAL2     0.900000E-01   1.00800           0   0.00000     -0.301140E-02
      7714 MEMB     64       PVCL2    H31K     HAL2     0.900000E-01   1.00800           0   0.00000     -0.301140E-02
      7715 MEMB     64       PVCL2    C2       CTL1     0.140000       12.0110           0   0.00000     -0.301140E-02
      7716 MEMB     64       PVCL2    HG22     HAL1     0.900000E-01   1.00800           0   0.00000     -0.301140E-02
      7717 MEMB     64       PVCL2    OG12     OHL     -0.650000       15.9994           0   0.00000     -0.301140E-02
      7718 MEMB     64       PVCL2    HO12     HOL      0.420000       1.00800           0   0.00000     -0.301140E-02
      7719 MEMB     64       PVCL2    C1       CTL2    -0.800000E-01   12.0110           0   0.00000     -0.301140E-02
      7720 MEMB     64       PVCL2    HG11     HAL2     0.900000E-01   1.00800           0   0.00000     -0.301140E-02
      7721 MEMB     64       PVCL2    HG12     HAL2     0.900000E-01   1.00800           0   0.00000     -0.301140E-02
      7722 MEMB     64       PVCL2    P1       PL        1.50000       30.9740           0   0.00000     -0.301140E-02
      7723 MEMB     64       PVCL2    OP13     O2L     -0.780000       15.9994           0   0.00000     -0.301140E-02
      7724 MEMB     64       PVCL2    OP14     O2L     -0.780000       15.9994           0   0.00000     -0.301140E-02
      7725 MEMB     64       PVCL2    OP11     OSLP    -0.570000       15.9994           0   0.00000     -0.301140E-02
      7726 MEMB     64       PVCL2    OP12     OSLP    -0.570000       15.9994           0   0.00000     -0.301140E-02
      7727 MEMB     64       PVCL2    C11      CTL2    -0.800000E-01   12.0110           0   0.00000     -0.301140E-02
      7728 MEMB     64       PVCL2    H11J     HAL2     0.900000E-01   1.00800           0   0.00000     -0.301140E-02
      7729 MEMB     64       PVCL2    H11K     HAL2     0.900000E-01   1.00800           0   0.00000     -0.301140E-02
      7730 MEMB     64       PVCL2    C12      CTL1     0.170000       12.0110           0   0.00000     -0.301140E-02
      7731 MEMB     64       PVCL2    H12J     HAL1     0.900000E-01   1.00800           0   0.00000     -0.301140E-02
      7732 MEMB     64       PVCL2    O12      OSL     -0.490000       15.9994           0   0.00000     -0.301140E-02
      7733 MEMB     64       PVCL2    CA1      CL       0.900000       12.0110           0   0.00000     -0.301140E-02
      7734 MEMB     64       PVCL2    OA1      OBL     -0.630000       15.9994           0   0.00000     -0.301140E-02
      7735 MEMB     64       PVCL2    CA2      CTL2    -0.220000       12.0110           0   0.00000     -0.301140E-02
      7736 MEMB     64       PVCL2    H2A      HAL2     0.900000E-01   1.00800           0   0.00000     -0.301140E-02
      7737 MEMB     64       PVCL2    H2B      HAL2     0.900000E-01   1.00800           0   0.00000     -0.301140E-02
      7738 MEMB     64       PVCL2    C13      CTL2     0.800000E-01   12.0110           0   0.00000     -0.301140E-02
      7739 MEMB     64       PVCL2    H13J     HAL2     0.900000E-01   1.00800           0   0.00000     -0.301140E-02
      7740 MEMB     64       PVCL2    H13K     HAL2     0.900000E-01   1.00800           0   0.00000     -0.301140E-02
      7741 MEMB     64       PVCL2    O13      OSL     -0.490000       15.9994           0   0.00000     -0.301140E-02
      7742 MEMB     64       PVCL2    CB1      CL       0.900000       12.0110           0   0.00000     -0.301140E-02
      7743 MEMB     64       PVCL2    OB1      OBL     -0.630000       15.9994           0   0.00000     -0.301140E-02
      7744 MEMB     64       PVCL2    CB2      CTL2    -0.220000       12.0110           0   0.00000     -0.301140E-02
      7745 MEMB     64       PVCL2    H2D      HAL2     0.900000E-01   1.00800           0   0.00000     -0.301140E-02
      7746 MEMB     64       PVCL2    H2E      HAL2     0.900000E-01   1.00800           0   0.00000     -0.301140E-02
      7747 MEMB     64       PVCL2    C32      CTL1     0.170000       12.0110           0   0.00000     -0.301140E-02
      7748 MEMB     64       PVCL2    H32J     HAL1     0.900000E-01   1.00800           0   0.00000     -0.301140E-02
      7749 MEMB     64       PVCL2    O32      OSL     -0.490000       15.9994           0   0.00000     -0.301140E-02
      7750 MEMB     64       PVCL2    CC1      CL       0.900000       12.0110           0   0.00000     -0.301140E-02
      7751 MEMB     64       PVCL2    OC1      OBL     -0.630000       15.9994           0   0.00000     -0.301140E-02
      7752 MEMB     64       PVCL2    CC2      CTL2    -0.220000       12.0110           0   0.00000     -0.301140E-02
      7753 MEMB     64       PVCL2    H2R      HAL2     0.900000E-01   1.00800           0   0.00000     -0.301140E-02
      7754 MEMB     64       PVCL2    H2S      HAL2     0.900000E-01   1.00800           0   0.00000     -0.301140E-02
      7755 MEMB     64       PVCL2    C33      CTL2     0.800000E-01   12.0110           0   0.00000     -0.301140E-02
      7756 MEMB     64       PVCL2    H33J     HAL2     0.900000E-01   1.00800           0   0.00000     -0.301140E-02
      7757 MEMB     64       PVCL2    H33K     HAL2     0.900000E-01   1.00800           0   0.00000     -0.301140E-02
      7758 MEMB     64       PVCL2    O33      OSL     -0.490000       15.9994           0   0.00000     -0.301140E-02
      7759 MEMB     64       PVCL2    CD1      CL       0.900000       12.0110           0   0.00000     -0.301140E-02
      7760 MEMB     64       PVCL2    OD1      OBL     -0.630000       15.9994           0   0.00000     -0.301140E-02
      7761 MEMB     64       PVCL2    CD2      CTL2    -0.220000       12.0110           0   0.00000     -0.301140E-02
      7762 MEMB     64       PVCL2    H2X      HAL2     0.900000E-01   1.00800           0   0.00000     -0.301140E-02
      7763 MEMB     64       PVCL2    H2Y      HAL2     0.900000E-01   1.00800           0   0.00000     -0.301140E-02
      7764 MEMB     64       PVCL2    CA3      CTL2    -0.180000       12.0110           0   0.00000     -0.301140E-02
      7765 MEMB     64       PVCL2    H3A      HAL2     0.900000E-01   1.00800           0   0.00000     -0.301140E-02
      7766 MEMB     64       PVCL2    H3B      HAL2     0.900000E-01   1.00800           0   0.00000     -0.301140E-02
      7767 MEMB     64       PVCL2    CA4      CTL2    -0.180000       12.0110           0   0.00000     -0.301140E-02
      7768 MEMB     64       PVCL2    H4A      HAL2     0.900000E-01   1.00800           0   0.00000     -0.301140E-02
      7769 MEMB     64       PVCL2    H4B      HAL2     0.900000E-01   1.00800           0   0.00000     -0.301140E-02
      7770 MEMB     64       PVCL2    CA5      CTL2    -0.180000       12.0110           0   0.00000     -0.301140E-02
      7771 MEMB     64       PVCL2    H5A      HAL2     0.900000E-01   1.00800           0   0.00000     -0.301140E-02
      7772 MEMB     64       PVCL2    H5B      HAL2     0.900000E-01   1.00800           0   0.00000     -0.301140E-02
      7773 MEMB     64       PVCL2    CA6      CTL2    -0.180000       12.0110           0   0.00000     -0.301140E-02
      7774 MEMB     64       PVCL2    H6A      HAL2     0.900000E-01   1.00800           0   0.00000     -0.301140E-02
      7775 MEMB     64       PVCL2    H6B      HAL2     0.900000E-01   1.00800           0   0.00000     -0.301140E-02
      7776 MEMB     64       PVCL2    CA7      CTL2    -0.180000       12.0110           0   0.00000     -0.301140E-02
      7777 MEMB     64       PVCL2    H7A      HAL2     0.900000E-01   1.00800           0   0.00000     -0.301140E-02
      7778 MEMB     64       PVCL2    H7B      HAL2     0.900000E-01   1.00800           0   0.00000     -0.301140E-02
      7779 MEMB     64       PVCL2    CA8      CTL2    -0.180000       12.0110           0   0.00000     -0.301140E-02
      7780 MEMB     64       PVCL2    H8A      HAL2     0.900000E-01   1.00800           0   0.00000     -0.301140E-02
      7781 MEMB     64       PVCL2    H8B      HAL2     0.900000E-01   1.00800           0   0.00000     -0.301140E-02
      7782 MEMB     64       PVCL2    CA9      CTL2    -0.180000       12.0110           0   0.00000     -0.301140E-02
      7783 MEMB     64       PVCL2    H9A      HAL2     0.900000E-01   1.00800           0   0.00000     -0.301140E-02
      7784 MEMB     64       PVCL2    H9B      HAL2     0.900000E-01   1.00800           0   0.00000     -0.301140E-02
      7785 MEMB     64       PVCL2    CA10     CTL2    -0.180000       12.0110           0   0.00000     -0.301140E-02
      7786 MEMB     64       PVCL2    H10A     HAL2     0.900000E-01   1.00800           0   0.00000     -0.301140E-02
      7787 MEMB     64       PVCL2    H10B     HAL2     0.900000E-01   1.00800           0   0.00000     -0.301140E-02
      7788 MEMB     64       PVCL2    CA11     CEL1    -0.150000       12.0110           0   0.00000     -0.301140E-02
      7789 MEMB     64       PVCL2    H11A     HEL1     0.150000       1.00800           0   0.00000     -0.301140E-02
      7790 MEMB     64       PVCL2    CA12     CEL1    -0.150000       12.0110           0   0.00000     -0.301140E-02
      7791 MEMB     64       PVCL2    H12A     HEL1     0.150000       1.00800           0   0.00000     -0.301140E-02
      7792 MEMB     64       PVCL2    CA13     CTL2    -0.180000       12.0110           0   0.00000     -0.301140E-02
      7793 MEMB     64       PVCL2    H13A     HAL2     0.900000E-01   1.00800           0   0.00000     -0.301140E-02
      7794 MEMB     64       PVCL2    H13B     HAL2     0.900000E-01   1.00800           0   0.00000     -0.301140E-02
      7795 MEMB     64       PVCL2    CA14     CTL2    -0.180000       12.0110           0   0.00000     -0.301140E-02
      7796 MEMB     64       PVCL2    H14A     HAL2     0.900000E-01   1.00800           0   0.00000     -0.301140E-02
      7797 MEMB     64       PVCL2    H14B     HAL2     0.900000E-01   1.00800           0   0.00000     -0.301140E-02
      7798 MEMB     64       PVCL2    CA15     CTL2    -0.180000       12.0110           0   0.00000     -0.301140E-02
      7799 MEMB     64       PVCL2    H15A     HAL2     0.900000E-01   1.00800           0   0.00000     -0.301140E-02
      7800 MEMB     64       PVCL2    H15B     HAL2     0.900000E-01   1.00800           0   0.00000     -0.301140E-02
      7801 MEMB     64       PVCL2    CA16     CTL2    -0.180000       12.0110           0   0.00000     -0.301140E-02
      7802 MEMB     64       PVCL2    H16A     HAL2     0.900000E-01   1.00800           0   0.00000     -0.301140E-02
      7803 MEMB     64       PVCL2    H16B     HAL2     0.900000E-01   1.00800           0   0.00000     -0.301140E-02
      7804 MEMB     64       PVCL2    CA17     CTL2    -0.180000       12.0110           0   0.00000     -0.301140E-02
      7805 MEMB     64       PVCL2    H17A     HAL2     0.900000E-01   1.00800           0   0.00000     -0.301140E-02
      7806 MEMB     64       PVCL2    H17B     HAL2     0.900000E-01   1.00800           0   0.00000     -0.301140E-02
      7807 MEMB     64       PVCL2    CA18     CTL3    -0.270000       12.0110           0   0.00000     -0.301140E-02
      7808 MEMB     64       PVCL2    H18A     HAL3     0.900000E-01   1.00800           0   0.00000     -0.301140E-02
      7809 MEMB     64       PVCL2    H18B     HAL3     0.900000E-01   1.00800           0   0.00000     -0.301140E-02
      7810 MEMB     64       PVCL2    H18C     HAL3     0.900000E-01   1.00800           0   0.00000     -0.301140E-02
      7811 MEMB     64       PVCL2    CB3      CTL2    -0.180000       12.0110           0   0.00000     -0.301140E-02
      7812 MEMB     64       PVCL2    H3D      HAL2     0.900000E-01   1.00800           0   0.00000     -0.301140E-02
      7813 MEMB     64       PVCL2    H3E      HAL2     0.900000E-01   1.00800           0   0.00000     -0.301140E-02
      7814 MEMB     64       PVCL2    CB4      CTL2    -0.180000       12.0110           0   0.00000     -0.301140E-02
      7815 MEMB     64       PVCL2    H4D      HAL2     0.900000E-01   1.00800           0   0.00000     -0.301140E-02
      7816 MEMB     64       PVCL2    H4E      HAL2     0.900000E-01   1.00800           0   0.00000     -0.301140E-02
      7817 MEMB     64       PVCL2    CB5      CTL2    -0.180000       12.0110           0   0.00000     -0.301140E-02
      7818 MEMB     64       PVCL2    H5D      HAL2     0.900000E-01   1.00800           0   0.00000     -0.301140E-02
      7819 MEMB     64       PVCL2    H5E      HAL2     0.900000E-01   1.00800           0   0.00000     -0.301140E-02
      7820 MEMB     64       PVCL2    CB6      CTL2    -0.180000       12.0110           0   0.00000     -0.301140E-02
      7821 MEMB     64       PVCL2    H6D      HAL2     0.900000E-01   1.00800           0   0.00000     -0.301140E-02
      7822 MEMB     64       PVCL2    H6E      HAL2     0.900000E-01   1.00800           0   0.00000     -0.301140E-02
      7823 MEMB     64       PVCL2    CB7      CTL2    -0.180000       12.0110           0   0.00000     -0.301140E-02
      7824 MEMB     64       PVCL2    H7D      HAL2     0.900000E-01   1.00800           0   0.00000     -0.301140E-02
      7825 MEMB     64       PVCL2    H7E      HAL2     0.900000E-01   1.00800           0   0.00000     -0.301140E-02
      7826 MEMB     64       PVCL2    CB8      CTL2    -0.180000       12.0110           0   0.00000     -0.301140E-02
      7827 MEMB     64       PVCL2    H8D      HAL2     0.900000E-01   1.00800           0   0.00000     -0.301140E-02
      7828 MEMB     64       PVCL2    H8E      HAL2     0.900000E-01   1.00800           0   0.00000     -0.301140E-02
      7829 MEMB     64       PVCL2    CB9      CTL2    -0.180000       12.0110           0   0.00000     -0.301140E-02
      7830 MEMB     64       PVCL2    H9D      HAL2     0.900000E-01   1.00800           0   0.00000     -0.301140E-02
      7831 MEMB     64       PVCL2    H9E      HAL2     0.900000E-01   1.00800           0   0.00000     -0.301140E-02
      7832 MEMB     64       PVCL2    CB10     CTL2    -0.180000       12.0110           0   0.00000     -0.301140E-02
      7833 MEMB     64       PVCL2    H10D     HAL2     0.900000E-01   1.00800           0   0.00000     -0.301140E-02
      7834 MEMB     64       PVCL2    H10E     HAL2     0.900000E-01   1.00800           0   0.00000     -0.301140E-02
      7835 MEMB     64       PVCL2    CB11     CTL2    -0.180000       12.0110           0   0.00000     -0.301140E-02
      7836 MEMB     64       PVCL2    H11D     HAL2     0.900000E-01   1.00800           0   0.00000     -0.301140E-02
      7837 MEMB     64       PVCL2    H11E     HAL2     0.900000E-01   1.00800           0   0.00000     -0.301140E-02
      7838 MEMB     64       PVCL2    CB12     CTL2    -0.180000       12.0110           0   0.00000     -0.301140E-02
      7839 MEMB     64       PVCL2    H12D     HAL2     0.900000E-01   1.00800           0   0.00000     -0.301140E-02
      7840 MEMB     64       PVCL2    H12E     HAL2     0.900000E-01   1.00800           0   0.00000     -0.301140E-02
      7841 MEMB     64       PVCL2    CB13     CTL2    -0.180000       12.0110           0   0.00000     -0.301140E-02
      7842 MEMB     64       PVCL2    H13D     HAL2     0.900000E-01   1.00800           0   0.00000     -0.301140E-02
      7843 MEMB     64       PVCL2    H13E     HAL2     0.900000E-01   1.00800           0   0.00000     -0.301140E-02
      7844 MEMB     64       PVCL2    CB14     CTL2    -0.180000       12.0110           0   0.00000     -0.301140E-02
      7845 MEMB     64       PVCL2    H14D     HAL2     0.900000E-01   1.00800           0   0.00000     -0.301140E-02
      7846 MEMB     64       PVCL2    H14E     HAL2     0.900000E-01   1.00800           0   0.00000     -0.301140E-02
      7847 MEMB     64       PVCL2    CB15     CTL2    -0.180000       12.0110           0   0.00000     -0.301140E-02
      7848 MEMB     64       PVCL2    H15D     HAL2     0.900000E-01   1.00800           0   0.00000     -0.301140E-02
      7849 MEMB     64       PVCL2    H15E     HAL2     0.900000E-01   1.00800           0   0.00000     -0.301140E-02
      7850 MEMB     64       PVCL2    CB16     CTL3    -0.270000       12.0110           0   0.00000     -0.301140E-02
      7851 MEMB     64       PVCL2    H16D     HAL3     0.900000E-01   1.00800           0   0.00000     -0.301140E-02
      7852 MEMB     64       PVCL2    H16E     HAL3     0.900000E-01   1.00800           0   0.00000     -0.301140E-02
      7853 MEMB     64       PVCL2    H16F     HAL3     0.900000E-01   1.00800           0   0.00000     -0.301140E-02
      7854 MEMB     64       PVCL2    CC3      CTL2    -0.180000       12.0110           0   0.00000     -0.301140E-02
      7855 MEMB     64       PVCL2    H3R      HAL2     0.900000E-01   1.00800           0   0.00000     -0.301140E-02
      7856 MEMB     64       PVCL2    H3S      HAL2     0.900000E-01   1.00800           0   0.00000     -0.301140E-02
      7857 MEMB     64       PVCL2    CC4      CTL2    -0.180000       12.0110           0   0.00000     -0.301140E-02
      7858 MEMB     64       PVCL2    H4R      HAL2     0.900000E-01   1.00800           0   0.00000     -0.301140E-02
      7859 MEMB     64       PVCL2    H4S      HAL2     0.900000E-01   1.00800           0   0.00000     -0.301140E-02
      7860 MEMB     64       PVCL2    CC5      CTL2    -0.180000       12.0110           0   0.00000     -0.301140E-02
      7861 MEMB     64       PVCL2    H5R      HAL2     0.900000E-01   1.00800           0   0.00000     -0.301140E-02
      7862 MEMB     64       PVCL2    H5S      HAL2     0.900000E-01   1.00800           0   0.00000     -0.301140E-02
      7863 MEMB     64       PVCL2    CC6      CTL2    -0.180000       12.0110           0   0.00000     -0.301140E-02
      7864 MEMB     64       PVCL2    H6R      HAL2     0.900000E-01   1.00800           0   0.00000     -0.301140E-02
      7865 MEMB     64       PVCL2    H6S      HAL2     0.900000E-01   1.00800           0   0.00000     -0.301140E-02
      7866 MEMB     64       PVCL2    CC7      CTL2    -0.180000       12.0110           0   0.00000     -0.301140E-02
      7867 MEMB     64       PVCL2    H7R      HAL2     0.900000E-01   1.00800           0   0.00000     -0.301140E-02
      7868 MEMB     64       PVCL2    H7S      HAL2     0.900000E-01   1.00800           0   0.00000     -0.301140E-02
      7869 MEMB     64       PVCL2    CC8      CTL2    -0.180000       12.0110           0   0.00000     -0.301140E-02
      7870 MEMB     64       PVCL2    H8R      HAL2     0.900000E-01   1.00800           0   0.00000     -0.301140E-02
      7871 MEMB     64       PVCL2    H8S      HAL2     0.900000E-01   1.00800           0   0.00000     -0.301140E-02
      7872 MEMB     64       PVCL2    CC9      CTL2    -0.180000       12.0110           0   0.00000     -0.301140E-02
      7873 MEMB     64       PVCL2    H9R      HAL2     0.900000E-01   1.00800           0   0.00000     -0.301140E-02
      7874 MEMB     64       PVCL2    H9S      HAL2     0.900000E-01   1.00800           0   0.00000     -0.301140E-02
      7875 MEMB     64       PVCL2    CC10     CTL2    -0.180000       12.0110           0   0.00000     -0.301140E-02
      7876 MEMB     64       PVCL2    H10R     HAL2     0.900000E-01   1.00800           0   0.00000     -0.301140E-02
      7877 MEMB     64       PVCL2    H10S     HAL2     0.900000E-01   1.00800           0   0.00000     -0.301140E-02
      7878 MEMB     64       PVCL2    CC11     CEL1    -0.150000       12.0110           0   0.00000     -0.301140E-02
      7879 MEMB     64       PVCL2    H11R     HEL1     0.150000       1.00800           0   0.00000     -0.301140E-02
      7880 MEMB     64       PVCL2    CC12     CEL1    -0.150000       12.0110           0   0.00000     -0.301140E-02
      7881 MEMB     64       PVCL2    H12R     HEL1     0.150000       1.00800           0   0.00000     -0.301140E-02
      7882 MEMB     64       PVCL2    CC13     CTL2    -0.180000       12.0110           0   0.00000     -0.301140E-02
      7883 MEMB     64       PVCL2    H13R     HAL2     0.900000E-01   1.00800           0   0.00000     -0.301140E-02
      7884 MEMB     64       PVCL2    H13S     HAL2     0.900000E-01   1.00800           0   0.00000     -0.301140E-02
      7885 MEMB     64       PVCL2    CC14     CTL2    -0.180000       12.0110           0   0.00000     -0.301140E-02
      7886 MEMB     64       PVCL2    H14R     HAL2     0.900000E-01   1.00800           0   0.00000     -0.301140E-02
      7887 MEMB     64       PVCL2    H14S     HAL2     0.900000E-01   1.00800           0   0.00000     -0.301140E-02
      7888 MEMB     64       PVCL2    CC15     CTL2    -0.180000       12.0110           0   0.00000     -0.301140E-02
      7889 MEMB     64       PVCL2    H15R     HAL2     0.900000E-01   1.00800           0   0.00000     -0.301140E-02
      7890 MEMB     64       PVCL2    H15S     HAL2     0.900000E-01   1.00800           0   0.00000     -0.301140E-02
      7891 MEMB     64       PVCL2    CC16     CTL2    -0.180000       12.0110           0   0.00000     -0.301140E-02
      7892 MEMB     64       PVCL2    H16R     HAL2     0.900000E-01   1.00800           0   0.00000     -0.301140E-02
      7893 MEMB     64       PVCL2    H16S     HAL2     0.900000E-01   1.00800           0   0.00000     -0.301140E-02
      7894 MEMB     64       PVCL2    CC17     CTL2    -0.180000       12.0110           0   0.00000     -0.301140E-02
      7895 MEMB     64       PVCL2    H17R     HAL2     0.900000E-01   1.00800           0   0.00000     -0.301140E-02
      7896 MEMB     64       PVCL2    H17S     HAL2     0.900000E-01   1.00800           0   0.00000     -0.301140E-02
      7897 MEMB     64       PVCL2    CC18     CTL3    -0.270000       12.0110           0   0.00000     -0.301140E-02
      7898 MEMB     64       PVCL2    H18R     HAL3     0.900000E-01   1.00800           0   0.00000     -0.301140E-02
      7899 MEMB     64       PVCL2    H18S     HAL3     0.900000E-01   1.00800           0   0.00000     -0.301140E-02
      7900 MEMB     64       PVCL2    H18T     HAL3     0.900000E-01   1.00800           0   0.00000     -0.301140E-02
      7901 MEMB     64       PVCL2    CD3      CTL2    -0.180000       12.0110           0   0.00000     -0.301140E-02
      7902 MEMB     64       PVCL2    H3X      HAL2     0.900000E-01   1.00800           0   0.00000     -0.301140E-02
      7903 MEMB     64       PVCL2    H3Y      HAL2     0.900000E-01   1.00800           0   0.00000     -0.301140E-02
      7904 MEMB     64       PVCL2    CD4      CTL2    -0.180000       12.0110           0   0.00000     -0.301140E-02
      7905 MEMB     64       PVCL2    H4X      HAL2     0.900000E-01   1.00800           0   0.00000     -0.301140E-02
      7906 MEMB     64       PVCL2    H4Y      HAL2     0.900000E-01   1.00800           0   0.00000     -0.301140E-02
      7907 MEMB     64       PVCL2    CD5      CTL2    -0.180000       12.0110           0   0.00000     -0.301140E-02
      7908 MEMB     64       PVCL2    H5X      HAL2     0.900000E-01   1.00800           0   0.00000     -0.301140E-02
      7909 MEMB     64       PVCL2    H5Y      HAL2     0.900000E-01   1.00800           0   0.00000     -0.301140E-02
      7910 MEMB     64       PVCL2    CD6      CTL2    -0.180000       12.0110           0   0.00000     -0.301140E-02
      7911 MEMB     64       PVCL2    H6X      HAL2     0.900000E-01   1.00800           0   0.00000     -0.301140E-02
      7912 MEMB     64       PVCL2    H6Y      HAL2     0.900000E-01   1.00800           0   0.00000     -0.301140E-02
      7913 MEMB     64       PVCL2    CD7      CTL2    -0.180000       12.0110           0   0.00000     -0.301140E-02
      7914 MEMB     64       PVCL2    H7X      HAL2     0.900000E-01   1.00800           0   0.00000     -0.301140E-02
      7915 MEMB     64       PVCL2    H7Y      HAL2     0.900000E-01   1.00800           0   0.00000     -0.301140E-02
      7916 MEMB     64       PVCL2    CD8      CTL2    -0.180000       12.0110           0   0.00000     -0.301140E-02
      7917 MEMB     64       PVCL2    H8X      HAL2     0.900000E-01   1.00800           0   0.00000     -0.301140E-02
      7918 MEMB     64       PVCL2    H8Y      HAL2     0.900000E-01   1.00800           0   0.00000     -0.301140E-02
      7919 MEMB     64       PVCL2    CD9      CTL2    -0.180000       12.0110           0   0.00000     -0.301140E-02
      7920 MEMB     64       PVCL2    H9X      HAL2     0.900000E-01   1.00800           0   0.00000     -0.301140E-02
      7921 MEMB     64       PVCL2    H9Y      HAL2     0.900000E-01   1.00800           0   0.00000     -0.301140E-02
      7922 MEMB     64       PVCL2    CD10     CTL2    -0.180000       12.0110           0   0.00000     -0.301140E-02
      7923 MEMB     64       PVCL2    H10X     HAL2     0.900000E-01   1.00800           0   0.00000     -0.301140E-02
      7924 MEMB     64       PVCL2    H10Y     HAL2     0.900000E-01   1.00800           0   0.00000     -0.301140E-02
      7925 MEMB     64       PVCL2    CD11     CTL2    -0.180000       12.0110           0   0.00000     -0.301140E-02
      7926 MEMB     64       PVCL2    H11X     HAL2     0.900000E-01   1.00800           0   0.00000     -0.301140E-02
      7927 MEMB     64       PVCL2    H11Y     HAL2     0.900000E-01   1.00800           0   0.00000     -0.301140E-02
      7928 MEMB     64       PVCL2    CD12     CTL2    -0.180000       12.0110           0   0.00000     -0.301140E-02
      7929 MEMB     64       PVCL2    H12X     HAL2     0.900000E-01   1.00800           0   0.00000     -0.301140E-02
      7930 MEMB     64       PVCL2    H12Y     HAL2     0.900000E-01   1.00800           0   0.00000     -0.301140E-02
      7931 MEMB     64       PVCL2    CD13     CTL2    -0.180000       12.0110           0   0.00000     -0.301140E-02
      7932 MEMB     64       PVCL2    H13X     HAL2     0.900000E-01   1.00800           0   0.00000     -0.301140E-02
      7933 MEMB     64       PVCL2    H13Y     HAL2     0.900000E-01   1.00800           0   0.00000     -0.301140E-02
      7934 MEMB     64       PVCL2    CD14     CTL2    -0.180000       12.0110           0   0.00000     -0.301140E-02
      7935 MEMB     64       PVCL2    H14X     HAL2     0.900000E-01   1.00800           0   0.00000     -0.301140E-02
      7936 MEMB     64       PVCL2    H14Y     HAL2     0.900000E-01   1.00800           0   0.00000     -0.301140E-02
      7937 MEMB     64       PVCL2    CD15     CTL2    -0.180000       12.0110           0   0.00000     -0.301140E-02
      7938 MEMB     64       PVCL2    H15X     HAL2     0.900000E-01   1.00800           0   0.00000     -0.301140E-02
      7939 MEMB     64       PVCL2    H15Y     HAL2     0.900000E-01   1.00800           0   0.00000     -0.301140E-02
      7940 MEMB     64       PVCL2    CD16     CTL3    -0.270000       12.0110           0   0.00000     -0.301140E-02
      7941 MEMB     64       PVCL2    H16X     HAL3     0.900000E-01   1.00800           0   0.00000     -0.301140E-02
      7942 MEMB     64       PVCL2    H16Y     HAL3     0.900000E-01   1.00800           0   0.00000     -0.301140E-02
      7943 MEMB     64       PVCL2    H16Z     HAL3     0.900000E-01   1.00800           0   0.00000     -0.301140E-02
      7944 MEMB     65       POPE     N        NH3L    -0.300000       14.0070           0   0.00000     -0.301140E-02
      7945 MEMB     65       POPE     HN1      HCL      0.330000       1.00800           0   0.00000     -0.301140E-02
      7946 MEMB     65       POPE     HN2      HCL      0.330000       1.00800           0   0.00000     -0.301140E-02
      7947 MEMB     65       POPE     HN3      HCL      0.330000       1.00800           0   0.00000     -0.301140E-02
      7948 MEMB     65       POPE     C12      CTL2     0.130000       12.0110           0   0.00000     -0.301140E-02
      7949 MEMB     65       POPE     H12A     HAL2     0.900000E-01   1.00800           0   0.00000     -0.301140E-02
      7950 MEMB     65       POPE     H12B     HAL2     0.900000E-01   1.00800           0   0.00000     -0.301140E-02
      7951 MEMB     65       POPE     C11      CTL2    -0.800000E-01   12.0110           0   0.00000     -0.301140E-02
      7952 MEMB     65       POPE     H11A     HAL2     0.900000E-01   1.00800           0   0.00000     -0.301140E-02
      7953 MEMB     65       POPE     H11B     HAL2     0.900000E-01   1.00800           0   0.00000     -0.301140E-02
      7954 MEMB     65       POPE     P        PL        1.50000       30.9740           0   0.00000     -0.301140E-02
      7955 MEMB     65       POPE     O13      O2L     -0.780000       15.9994           0   0.00000     -0.301140E-02
      7956 MEMB     65       POPE     O14      O2L     -0.780000       15.9994           0   0.00000     -0.301140E-02
      7957 MEMB     65       POPE     O11      OSLP    -0.570000       15.9994           0   0.00000     -0.301140E-02
      7958 MEMB     65       POPE     O12      OSLP    -0.570000       15.9994           0   0.00000     -0.301140E-02
      7959 MEMB     65       POPE     C1       CTL2    -0.800000E-01   12.0110           0   0.00000     -0.301140E-02
      7960 MEMB     65       POPE     HA       HAL2     0.900000E-01   1.00800           0   0.00000     -0.301140E-02
      7961 MEMB     65       POPE     HB       HAL2     0.900000E-01   1.00800           0   0.00000     -0.301140E-02
      7962 MEMB     65       POPE     C2       CTL1     0.170000       12.0110           0   0.00000     -0.301140E-02
      7963 MEMB     65       POPE     HS       HAL1     0.900000E-01   1.00800           0   0.00000     -0.301140E-02
      7964 MEMB     65       POPE     O21      OSL     -0.490000       15.9994           0   0.00000     -0.301140E-02
      7965 MEMB     65       POPE     C21      CL       0.900000       12.0110           0   0.00000     -0.301140E-02
      7966 MEMB     65       POPE     O22      OBL     -0.630000       15.9994           0   0.00000     -0.301140E-02
      7967 MEMB     65       POPE     C22      CTL2    -0.220000       12.0110           0   0.00000     -0.301140E-02
      7968 MEMB     65       POPE     H2R      HAL2     0.900000E-01   1.00800           0   0.00000     -0.301140E-02
      7969 MEMB     65       POPE     H2S      HAL2     0.900000E-01   1.00800           0   0.00000     -0.301140E-02
      7970 MEMB     65       POPE     C3       CTL2     0.800000E-01   12.0110           0   0.00000     -0.301140E-02
      7971 MEMB     65       POPE     HX       HAL2     0.900000E-01   1.00800           0   0.00000     -0.301140E-02
      7972 MEMB     65       POPE     HY       HAL2     0.900000E-01   1.00800           0   0.00000     -0.301140E-02
      7973 MEMB     65       POPE     O31      OSL     -0.490000       15.9994           0   0.00000     -0.301140E-02
      7974 MEMB     65       POPE     C31      CL       0.900000       12.0110           0   0.00000     -0.301140E-02
      7975 MEMB     65       POPE     O32      OBL     -0.630000       15.9994           0   0.00000     -0.301140E-02
      7976 MEMB     65       POPE     C32      CTL2    -0.220000       12.0110           0   0.00000     -0.301140E-02
      7977 MEMB     65       POPE     H2X      HAL2     0.900000E-01   1.00800           0   0.00000     -0.301140E-02
      7978 MEMB     65       POPE     H2Y      HAL2     0.900000E-01   1.00800           0   0.00000     -0.301140E-02
      7979 MEMB     65       POPE     C23      CTL2    -0.180000       12.0110           0   0.00000     -0.301140E-02
      7980 MEMB     65       POPE     H3R      HAL2     0.900000E-01   1.00800           0   0.00000     -0.301140E-02
      7981 MEMB     65       POPE     H3S      HAL2     0.900000E-01   1.00800           0   0.00000     -0.301140E-02
      7982 MEMB     65       POPE     C24      CTL2    -0.180000       12.0110           0   0.00000     -0.301140E-02
      7983 MEMB     65       POPE     H4R      HAL2     0.900000E-01   1.00800           0   0.00000     -0.301140E-02
      7984 MEMB     65       POPE     H4S      HAL2     0.900000E-01   1.00800           0   0.00000     -0.301140E-02
      7985 MEMB     65       POPE     C25      CTL2    -0.180000       12.0110           0   0.00000     -0.301140E-02
      7986 MEMB     65       POPE     H5R      HAL2     0.900000E-01   1.00800           0   0.00000     -0.301140E-02
      7987 MEMB     65       POPE     H5S      HAL2     0.900000E-01   1.00800           0   0.00000     -0.301140E-02
      7988 MEMB     65       POPE     C26      CTL2    -0.180000       12.0110           0   0.00000     -0.301140E-02
      7989 MEMB     65       POPE     H6R      HAL2     0.900000E-01   1.00800           0   0.00000     -0.301140E-02
      7990 MEMB     65       POPE     H6S      HAL2     0.900000E-01   1.00800           0   0.00000     -0.301140E-02
      7991 MEMB     65       POPE     C27      CTL2    -0.180000       12.0110           0   0.00000     -0.301140E-02
      7992 MEMB     65       POPE     H7R      HAL2     0.900000E-01   1.00800           0   0.00000     -0.301140E-02
      7993 MEMB     65       POPE     H7S      HAL2     0.900000E-01   1.00800           0   0.00000     -0.301140E-02
      7994 MEMB     65       POPE     C28      CTL2    -0.180000       12.0110           0   0.00000     -0.301140E-02
      7995 MEMB     65       POPE     H8R      HAL2     0.900000E-01   1.00800           0   0.00000     -0.301140E-02
      7996 MEMB     65       POPE     H8S      HAL2     0.900000E-01   1.00800           0   0.00000     -0.301140E-02
      7997 MEMB     65       POPE     C29      CEL1    -0.150000       12.0110           0   0.00000     -0.301140E-02
      7998 MEMB     65       POPE     H91      HEL1     0.150000       1.00800           0   0.00000     -0.301140E-02
      7999 MEMB     65       POPE     C210     CEL1    -0.150000       12.0110           0   0.00000     -0.301140E-02
      8000 MEMB     65       POPE     H101     HEL1     0.150000       1.00800           0   0.00000     -0.301140E-02
      8001 MEMB     65       POPE     C211     CTL2    -0.180000       12.0110           0   0.00000     -0.301140E-02
      8002 MEMB     65       POPE     H11R     HAL2     0.900000E-01   1.00800           0   0.00000     -0.301140E-02
      8003 MEMB     65       POPE     H11S     HAL2     0.900000E-01   1.00800           0   0.00000     -0.301140E-02
      8004 MEMB     65       POPE     C212     CTL2    -0.180000       12.0110           0   0.00000     -0.301140E-02
      8005 MEMB     65       POPE     H12R     HAL2     0.900000E-01   1.00800           0   0.00000     -0.301140E-02
      8006 MEMB     65       POPE     H12S     HAL2     0.900000E-01   1.00800           0   0.00000     -0.301140E-02
      8007 MEMB     65       POPE     C213     CTL2    -0.180000       12.0110           0   0.00000     -0.301140E-02
      8008 MEMB     65       POPE     H13R     HAL2     0.900000E-01   1.00800           0   0.00000     -0.301140E-02
      8009 MEMB     65       POPE     H13S     HAL2     0.900000E-01   1.00800           0   0.00000     -0.301140E-02
      8010 MEMB     65       POPE     C214     CTL2    -0.180000       12.0110           0   0.00000     -0.301140E-02
      8011 MEMB     65       POPE     H14R     HAL2     0.900000E-01   1.00800           0   0.00000     -0.301140E-02
      8012 MEMB     65       POPE     H14S     HAL2     0.900000E-01   1.00800           0   0.00000     -0.301140E-02
      8013 MEMB     65       POPE     C215     CTL2    -0.180000       12.0110           0   0.00000     -0.301140E-02
      8014 MEMB     65       POPE     H15R     HAL2     0.900000E-01   1.00800           0   0.00000     -0.301140E-02
      8015 MEMB     65       POPE     H15S     HAL2     0.900000E-01   1.00800           0   0.00000     -0.301140E-02
      8016 MEMB     65       POPE     C216     CTL2    -0.180000       12.0110           0   0.00000     -0.301140E-02
      8017 MEMB     65       POPE     H16R     HAL2     0.900000E-01   1.00800           0   0.00000     -0.301140E-02
      8018 MEMB     65       POPE     H16S     HAL2     0.900000E-01   1.00800           0   0.00000     -0.301140E-02
      8019 MEMB     65       POPE     C217     CTL2    -0.180000       12.0110           0   0.00000     -0.301140E-02
      8020 MEMB     65       POPE     H17R     HAL2     0.900000E-01   1.00800           0   0.00000     -0.301140E-02
      8021 MEMB     65       POPE     H17S     HAL2     0.900000E-01   1.00800           0   0.00000     -0.301140E-02
      8022 MEMB     65       POPE     C218     CTL3    -0.270000       12.0110           0   0.00000     -0.301140E-02
      8023 MEMB     65       POPE     H18R     HAL3     0.900000E-01   1.00800           0   0.00000     -0.301140E-02
      8024 MEMB     65       POPE     H18S     HAL3     0.900000E-01   1.00800           0   0.00000     -0.301140E-02
      8025 MEMB     65       POPE     H18T     HAL3     0.900000E-01   1.00800           0   0.00000     -0.301140E-02
      8026 MEMB     65       POPE     C33      CTL2    -0.180000       12.0110           0   0.00000     -0.301140E-02
      8027 MEMB     65       POPE     H3X      HAL2     0.900000E-01   1.00800           0   0.00000     -0.301140E-02
      8028 MEMB     65       POPE     H3Y      HAL2     0.900000E-01   1.00800           0   0.00000     -0.301140E-02
      8029 MEMB     65       POPE     C34      CTL2    -0.180000       12.0110           0   0.00000     -0.301140E-02
      8030 MEMB     65       POPE     H4X      HAL2     0.900000E-01   1.00800           0   0.00000     -0.301140E-02
      8031 MEMB     65       POPE     H4Y      HAL2     0.900000E-01   1.00800           0   0.00000     -0.301140E-02
      8032 MEMB     65       POPE     C35      CTL2    -0.180000       12.0110           0   0.00000     -0.301140E-02
      8033 MEMB     65       POPE     H5X      HAL2     0.900000E-01   1.00800           0   0.00000     -0.301140E-02
      8034 MEMB     65       POPE     H5Y      HAL2     0.900000E-01   1.00800           0   0.00000     -0.301140E-02
      8035 MEMB     65       POPE     C36      CTL2    -0.180000       12.0110           0   0.00000     -0.301140E-02
      8036 MEMB     65       POPE     H6X      HAL2     0.900000E-01   1.00800           0   0.00000     -0.301140E-02
      8037 MEMB     65       POPE     H6Y      HAL2     0.900000E-01   1.00800           0   0.00000     -0.301140E-02
      8038 MEMB     65       POPE     C37      CTL2    -0.180000       12.0110           0   0.00000     -0.301140E-02
      8039 MEMB     65       POPE     H7X      HAL2     0.900000E-01   1.00800           0   0.00000     -0.301140E-02
      8040 MEMB     65       POPE     H7Y      HAL2     0.900000E-01   1.00800           0   0.00000     -0.301140E-02
      8041 MEMB     65       POPE     C38      CTL2    -0.180000       12.0110           0   0.00000     -0.301140E-02
      8042 MEMB     65       POPE     H8X      HAL2     0.900000E-01   1.00800           0   0.00000     -0.301140E-02
      8043 MEMB     65       POPE     H8Y      HAL2     0.900000E-01   1.00800           0   0.00000     -0.301140E-02
      8044 MEMB     65       POPE     C39      CTL2    -0.180000       12.0110           0   0.00000     -0.301140E-02
      8045 MEMB     65       POPE     H9X      HAL2     0.900000E-01   1.00800           0   0.00000     -0.301140E-02
      8046 MEMB     65       POPE     H9Y      HAL2     0.900000E-01   1.00800           0   0.00000     -0.301140E-02
      8047 MEMB     65       POPE     C310     CTL2    -0.180000       12.0110           0   0.00000     -0.301140E-02
      8048 MEMB     65       POPE     H10X     HAL2     0.900000E-01   1.00800           0   0.00000     -0.301140E-02
      8049 MEMB     65       POPE     H10Y     HAL2     0.900000E-01   1.00800           0   0.00000     -0.301140E-02
      8050 MEMB     65       POPE     C311     CTL2    -0.180000       12.0110           0   0.00000     -0.301140E-02
      8051 MEMB     65       POPE     H11X     HAL2     0.900000E-01   1.00800           0   0.00000     -0.301140E-02
      8052 MEMB     65       POPE     H11Y     HAL2     0.900000E-01   1.00800           0   0.00000     -0.301140E-02
      8053 MEMB     65       POPE     C312     CTL2    -0.180000       12.0110           0   0.00000     -0.301140E-02
      8054 MEMB     65       POPE     H12X     HAL2     0.900000E-01   1.00800           0   0.00000     -0.301140E-02
      8055 MEMB     65       POPE     H12Y     HAL2     0.900000E-01   1.00800           0   0.00000     -0.301140E-02
      8056 MEMB     65       POPE     C313     CTL2    -0.180000       12.0110           0   0.00000     -0.301140E-02
      8057 MEMB     65       POPE     H13X     HAL2     0.900000E-01   1.00800           0   0.00000     -0.301140E-02
      8058 MEMB     65       POPE     H13Y     HAL2     0.900000E-01   1.00800           0   0.00000     -0.301140E-02
      8059 MEMB     65       POPE     C314     CTL2    -0.180000       12.0110           0   0.00000     -0.301140E-02
      8060 MEMB     65       POPE     H14X     HAL2     0.900000E-01   1.00800           0   0.00000     -0.301140E-02
      8061 MEMB     65       POPE     H14Y     HAL2     0.900000E-01   1.00800           0   0.00000     -0.301140E-02
      8062 MEMB     65       POPE     C315     CTL2    -0.180000       12.0110           0   0.00000     -0.301140E-02
      8063 MEMB     65       POPE     H15X     HAL2     0.900000E-01   1.00800           0   0.00000     -0.301140E-02
      8064 MEMB     65       POPE     H15Y     HAL2     0.900000E-01   1.00800           0   0.00000     -0.301140E-02
      8065 MEMB     65       POPE     C316     CTL3    -0.270000       12.0110           0   0.00000     -0.301140E-02
      8066 MEMB     65       POPE     H16X     HAL3     0.900000E-01   1.00800           0   0.00000     -0.301140E-02
      8067 MEMB     65       POPE     H16Y     HAL3     0.900000E-01   1.00800           0   0.00000     -0.301140E-02
      8068 MEMB     65       POPE     H16Z     HAL3     0.900000E-01   1.00800           0   0.00000     -0.301140E-02
      8069 MEMB     66       OYPE     N        NH3L    -0.300000       14.0070           0   0.00000     -0.301140E-02
      8070 MEMB     66       OYPE     HN1      HCL      0.330000       1.00800           0   0.00000     -0.301140E-02
      8071 MEMB     66       OYPE     HN2      HCL      0.330000       1.00800           0   0.00000     -0.301140E-02
      8072 MEMB     66       OYPE     HN3      HCL      0.330000       1.00800           0   0.00000     -0.301140E-02
      8073 MEMB     66       OYPE     C12      CTL2     0.130000       12.0110           0   0.00000     -0.301140E-02
      8074 MEMB     66       OYPE     H12A     HAL2     0.900000E-01   1.00800           0   0.00000     -0.301140E-02
      8075 MEMB     66       OYPE     H12B     HAL2     0.900000E-01   1.00800           0   0.00000     -0.301140E-02
      8076 MEMB     66       OYPE     C11      CTL2    -0.800000E-01   12.0110           0   0.00000     -0.301140E-02
      8077 MEMB     66       OYPE     H11A     HAL2     0.900000E-01   1.00800           0   0.00000     -0.301140E-02
      8078 MEMB     66       OYPE     H11B     HAL2     0.900000E-01   1.00800           0   0.00000     -0.301140E-02
      8079 MEMB     66       OYPE     P        PL        1.50000       30.9740           0   0.00000     -0.301140E-02
      8080 MEMB     66       OYPE     O13      O2L     -0.780000       15.9994           0   0.00000     -0.301140E-02
      8081 MEMB     66       OYPE     O14      O2L     -0.780000       15.9994           0   0.00000     -0.301140E-02
      8082 MEMB     66       OYPE     O11      OSLP    -0.570000       15.9994           0   0.00000     -0.301140E-02
      8083 MEMB     66       OYPE     O12      OSLP    -0.570000       15.9994           0   0.00000     -0.301140E-02
      8084 MEMB     66       OYPE     C1       CTL2    -0.800000E-01   12.0110           0   0.00000     -0.301140E-02
      8085 MEMB     66       OYPE     HA       HAL2     0.900000E-01   1.00800           0   0.00000     -0.301140E-02
      8086 MEMB     66       OYPE     HB       HAL2     0.900000E-01   1.00800           0   0.00000     -0.301140E-02
      8087 MEMB     66       OYPE     C2       CTL1     0.170000       12.0110           0   0.00000     -0.301140E-02
      8088 MEMB     66       OYPE     HS       HAL1     0.900000E-01   1.00800           0   0.00000     -0.301140E-02
      8089 MEMB     66       OYPE     O21      OSL     -0.490000       15.9994           0   0.00000     -0.301140E-02
      8090 MEMB     66       OYPE     C21      CL       0.900000       12.0110           0   0.00000     -0.301140E-02
      8091 MEMB     66       OYPE     O22      OBL     -0.630000       15.9994           0   0.00000     -0.301140E-02
      8092 MEMB     66       OYPE     C22      CTL2    -0.220000       12.0110           0   0.00000     -0.301140E-02
      8093 MEMB     66       OYPE     H2R      HAL2     0.900000E-01   1.00800           0   0.00000     -0.301140E-02
      8094 MEMB     66       OYPE     H2S      HAL2     0.900000E-01   1.00800           0   0.00000     -0.301140E-02
      8095 MEMB     66       OYPE     C3       CTL2     0.800000E-01   12.0110           0   0.00000     -0.301140E-02
      8096 MEMB     66       OYPE     HX       HAL2     0.900000E-01   1.00800           0   0.00000     -0.301140E-02
      8097 MEMB     66       OYPE     HY       HAL2     0.900000E-01   1.00800           0   0.00000     -0.301140E-02
      8098 MEMB     66       OYPE     O31      OSL     -0.490000       15.9994           0   0.00000     -0.301140E-02
      8099 MEMB     66       OYPE     C31      CL       0.900000       12.0110           0   0.00000     -0.301140E-02
      8100 MEMB     66       OYPE     O32      OBL     -0.630000       15.9994           0   0.00000     -0.301140E-02
      8101 MEMB     66       OYPE     C32      CTL2    -0.220000       12.0110           0   0.00000     -0.301140E-02
      8102 MEMB     66       OYPE     H2X      HAL2     0.900000E-01   1.00800           0   0.00000     -0.301140E-02
      8103 MEMB     66       OYPE     H2Y      HAL2     0.900000E-01   1.00800           0   0.00000     -0.301140E-02
      8104 MEMB     66       OYPE     C23      CTL2    -0.180000       12.0110           0   0.00000     -0.301140E-02
      8105 MEMB     66       OYPE     H3R      HAL2     0.900000E-01   1.00800           0   0.00000     -0.301140E-02
      8106 MEMB     66       OYPE     H3S      HAL2     0.900000E-01   1.00800           0   0.00000     -0.301140E-02
      8107 MEMB     66       OYPE     C24      CTL2    -0.180000       12.0110           0   0.00000     -0.301140E-02
      8108 MEMB     66       OYPE     H4R      HAL2     0.900000E-01   1.00800           0   0.00000     -0.301140E-02
      8109 MEMB     66       OYPE     H4S      HAL2     0.900000E-01   1.00800           0   0.00000     -0.301140E-02
      8110 MEMB     66       OYPE     C25      CTL2    -0.180000       12.0110           0   0.00000     -0.301140E-02
      8111 MEMB     66       OYPE     H5R      HAL2     0.900000E-01   1.00800           0   0.00000     -0.301140E-02
      8112 MEMB     66       OYPE     H5S      HAL2     0.900000E-01   1.00800           0   0.00000     -0.301140E-02
      8113 MEMB     66       OYPE     C26      CTL2    -0.180000       12.0110           0   0.00000     -0.301140E-02
      8114 MEMB     66       OYPE     H6R      HAL2     0.900000E-01   1.00800           0   0.00000     -0.301140E-02
      8115 MEMB     66       OYPE     H6S      HAL2     0.900000E-01   1.00800           0   0.00000     -0.301140E-02
      8116 MEMB     66       OYPE     C27      CTL2    -0.180000       12.0110           0   0.00000     -0.301140E-02
      8117 MEMB     66       OYPE     H7R      HAL2     0.900000E-01   1.00800           0   0.00000     -0.301140E-02
      8118 MEMB     66       OYPE     H7S      HAL2     0.900000E-01   1.00800           0   0.00000     -0.301140E-02
      8119 MEMB     66       OYPE     C28      CTL2    -0.180000       12.0110           0   0.00000     -0.301140E-02
      8120 MEMB     66       OYPE     H8R      HAL2     0.900000E-01   1.00800           0   0.00000     -0.301140E-02
      8121 MEMB     66       OYPE     H8S      HAL2     0.900000E-01   1.00800           0   0.00000     -0.301140E-02
      8122 MEMB     66       OYPE     C29      CEL1    -0.150000       12.0110           0   0.00000     -0.301140E-02
      8123 MEMB     66       OYPE     H9R      HEL1     0.150000       1.00800           0   0.00000     -0.301140E-02
      8124 MEMB     66       OYPE     C210     CEL1    -0.150000       12.0110           0   0.00000     -0.301140E-02
      8125 MEMB     66       OYPE     H10R     HEL1     0.150000       1.00800           0   0.00000     -0.301140E-02
      8126 MEMB     66       OYPE     C211     CTL2    -0.180000       12.0110           0   0.00000     -0.301140E-02
      8127 MEMB     66       OYPE     H11R     HAL2     0.900000E-01   1.00800           0   0.00000     -0.301140E-02
      8128 MEMB     66       OYPE     H11S     HAL2     0.900000E-01   1.00800           0   0.00000     -0.301140E-02
      8129 MEMB     66       OYPE     C212     CTL2    -0.180000       12.0110           0   0.00000     -0.301140E-02
      8130 MEMB     66       OYPE     H12R     HAL2     0.900000E-01   1.00800           0   0.00000     -0.301140E-02
      8131 MEMB     66       OYPE     H12S     HAL2     0.900000E-01   1.00800           0   0.00000     -0.301140E-02
      8132 MEMB     66       OYPE     C213     CTL2    -0.180000       12.0110           0   0.00000     -0.301140E-02
      8133 MEMB     66       OYPE     H13R     HAL2     0.900000E-01   1.00800           0   0.00000     -0.301140E-02
      8134 MEMB     66       OYPE     H13S     HAL2     0.900000E-01   1.00800           0   0.00000     -0.301140E-02
      8135 MEMB     66       OYPE     C214     CTL2    -0.180000       12.0110           0   0.00000     -0.301140E-02
      8136 MEMB     66       OYPE     H14R     HAL2     0.900000E-01   1.00800           0   0.00000     -0.301140E-02
      8137 MEMB     66       OYPE     H14S     HAL2     0.900000E-01   1.00800           0   0.00000     -0.301140E-02
      8138 MEMB     66       OYPE     C215     CTL2    -0.180000       12.0110           0   0.00000     -0.301140E-02
      8139 MEMB     66       OYPE     H15R     HAL2     0.900000E-01   1.00800           0   0.00000     -0.301140E-02
      8140 MEMB     66       OYPE     H15S     HAL2     0.900000E-01   1.00800           0   0.00000     -0.301140E-02
      8141 MEMB     66       OYPE     C216     CTL3    -0.270000       12.0110           0   0.00000     -0.301140E-02
      8142 MEMB     66       OYPE     H16R     HAL3     0.900000E-01   1.00800           0   0.00000     -0.301140E-02
      8143 MEMB     66       OYPE     H16S     HAL3     0.900000E-01   1.00800           0   0.00000     -0.301140E-02
      8144 MEMB     66       OYPE     H16T     HAL3     0.900000E-01   1.00800           0   0.00000     -0.301140E-02
      8145 MEMB     66       OYPE     C33      CTL2    -0.180000       12.0110           0   0.00000     -0.301140E-02
      8146 MEMB     66       OYPE     H3X      HAL2     0.900000E-01   1.00800           0   0.00000     -0.301140E-02
      8147 MEMB     66       OYPE     H3Y      HAL2     0.900000E-01   1.00800           0   0.00000     -0.301140E-02
      8148 MEMB     66       OYPE     C34      CTL2    -0.180000       12.0110           0   0.00000     -0.301140E-02
      8149 MEMB     66       OYPE     H4X      HAL2     0.900000E-01   1.00800           0   0.00000     -0.301140E-02
      8150 MEMB     66       OYPE     H4Y      HAL2     0.900000E-01   1.00800           0   0.00000     -0.301140E-02
      8151 MEMB     66       OYPE     C35      CTL2    -0.180000       12.0110           0   0.00000     -0.301140E-02
      8152 MEMB     66       OYPE     H5X      HAL2     0.900000E-01   1.00800           0   0.00000     -0.301140E-02
      8153 MEMB     66       OYPE     H5Y      HAL2     0.900000E-01   1.00800           0   0.00000     -0.301140E-02
      8154 MEMB     66       OYPE     C36      CTL2    -0.180000       12.0110           0   0.00000     -0.301140E-02
      8155 MEMB     66       OYPE     H6X      HAL2     0.900000E-01   1.00800           0   0.00000     -0.301140E-02
      8156 MEMB     66       OYPE     H6Y      HAL2     0.900000E-01   1.00800           0   0.00000     -0.301140E-02
      8157 MEMB     66       OYPE     C37      CTL2    -0.180000       12.0110           0   0.00000     -0.301140E-02
      8158 MEMB     66       OYPE     H7X      HAL2     0.900000E-01   1.00800           0   0.00000     -0.301140E-02
      8159 MEMB     66       OYPE     H7Y      HAL2     0.900000E-01   1.00800           0   0.00000     -0.301140E-02
      8160 MEMB     66       OYPE     C38      CTL2    -0.180000       12.0110           0   0.00000     -0.301140E-02
      8161 MEMB     66       OYPE     H8X      HAL2     0.900000E-01   1.00800           0   0.00000     -0.301140E-02
      8162 MEMB     66       OYPE     H8Y      HAL2     0.900000E-01   1.00800           0   0.00000     -0.301140E-02
      8163 MEMB     66       OYPE     C39      CEL1    -0.150000       12.0110           0   0.00000     -0.301140E-02
      8164 MEMB     66       OYPE     H9X      HEL1     0.150000       1.00800           0   0.00000     -0.301140E-02
      8165 MEMB     66       OYPE     C310     CEL1    -0.150000       12.0110           0   0.00000     -0.301140E-02
      8166 MEMB     66       OYPE     H10X     HEL1     0.150000       1.00800           0   0.00000     -0.301140E-02
      8167 MEMB     66       OYPE     C311     CTL2    -0.180000       12.0110           0   0.00000     -0.301140E-02
      8168 MEMB     66       OYPE     H11X     HAL2     0.900000E-01   1.00800           0   0.00000     -0.301140E-02
      8169 MEMB     66       OYPE     H11Y     HAL2     0.900000E-01   1.00800           0   0.00000     -0.301140E-02
      8170 MEMB     66       OYPE     C312     CTL2    -0.180000       12.0110           0   0.00000     -0.301140E-02
      8171 MEMB     66       OYPE     H12X     HAL2     0.900000E-01   1.00800           0   0.00000     -0.301140E-02
      8172 MEMB     66       OYPE     H12Y     HAL2     0.900000E-01   1.00800           0   0.00000     -0.301140E-02
      8173 MEMB     66       OYPE     C313     CTL2    -0.180000       12.0110           0   0.00000     -0.301140E-02
      8174 MEMB     66       OYPE     H13X     HAL2     0.900000E-01   1.00800           0   0.00000     -0.301140E-02
      8175 MEMB     66       OYPE     H13Y     HAL2     0.900000E-01   1.00800           0   0.00000     -0.301140E-02
      8176 MEMB     66       OYPE     C314     CTL2    -0.180000       12.0110           0   0.00000     -0.301140E-02
      8177 MEMB     66       OYPE     H14X     HAL2     0.900000E-01   1.00800           0   0.00000     -0.301140E-02
      8178 MEMB     66       OYPE     H14Y     HAL2     0.900000E-01   1.00800           0   0.00000     -0.301140E-02
      8179 MEMB     66       OYPE     C315     CTL2    -0.180000       12.0110           0   0.00000     -0.301140E-02
      8180 MEMB     66       OYPE     H15X     HAL2     0.900000E-01   1.00800           0   0.00000     -0.301140E-02
      8181 MEMB     66       OYPE     H15Y     HAL2     0.900000E-01   1.00800           0   0.00000     -0.301140E-02
      8182 MEMB     66       OYPE     C316     CTL2    -0.180000       12.0110           0   0.00000     -0.301140E-02
      8183 MEMB     66       OYPE     H16X     HAL2     0.900000E-01   1.00800           0   0.00000     -0.301140E-02
      8184 MEMB     66       OYPE     H16Y     HAL2     0.900000E-01   1.00800           0   0.00000     -0.301140E-02
      8185 MEMB     66       OYPE     C317     CTL2    -0.180000       12.0110           0   0.00000     -0.301140E-02
      8186 MEMB     66       OYPE     H17X     HAL2     0.900000E-01   1.00800           0   0.00000     -0.301140E-02
      8187 MEMB     66       OYPE     H17Y     HAL2     0.900000E-01   1.00800           0   0.00000     -0.301140E-02
      8188 MEMB     66       OYPE     C318     CTL3    -0.270000       12.0110           0   0.00000     -0.301140E-02
      8189 MEMB     66       OYPE     H18X     HAL3     0.900000E-01   1.00800           0   0.00000     -0.301140E-02
      8190 MEMB     66       OYPE     H18Y     HAL3     0.900000E-01   1.00800           0   0.00000     -0.301140E-02
      8191 MEMB     66       OYPE     H18Z     HAL3     0.900000E-01   1.00800           0   0.00000     -0.301140E-02
      8192 MEMB     67       PMPE     N        NH3L    -0.300000       14.0070           0   0.00000     -0.301140E-02
      8193 MEMB     67       PMPE     HN1      HCL      0.330000       1.00800           0   0.00000     -0.301140E-02
      8194 MEMB     67       PMPE     HN2      HCL      0.330000       1.00800           0   0.00000     -0.301140E-02
      8195 MEMB     67       PMPE     HN3      HCL      0.330000       1.00800           0   0.00000     -0.301140E-02
      8196 MEMB     67       PMPE     C12      CTL2     0.130000       12.0110           0   0.00000     -0.301140E-02
      8197 MEMB     67       PMPE     H12A     HAL2     0.900000E-01   1.00800           0   0.00000     -0.301140E-02
      8198 MEMB     67       PMPE     H12B     HAL2     0.900000E-01   1.00800           0   0.00000     -0.301140E-02
      8199 MEMB     67       PMPE     C11      CTL2    -0.800000E-01   12.0110           0   0.00000     -0.301140E-02
      8200 MEMB     67       PMPE     H11A     HAL2     0.900000E-01   1.00800           0   0.00000     -0.301140E-02
      8201 MEMB     67       PMPE     H11B     HAL2     0.900000E-01   1.00800           0   0.00000     -0.301140E-02
      8202 MEMB     67       PMPE     P        PL        1.50000       30.9740           0   0.00000     -0.301140E-02
      8203 MEMB     67       PMPE     O13      O2L     -0.780000       15.9994           0   0.00000     -0.301140E-02
      8204 MEMB     67       PMPE     O14      O2L     -0.780000       15.9994           0   0.00000     -0.301140E-02
      8205 MEMB     67       PMPE     O11      OSLP    -0.570000       15.9994           0   0.00000     -0.301140E-02
      8206 MEMB     67       PMPE     O12      OSLP    -0.570000       15.9994           0   0.00000     -0.301140E-02
      8207 MEMB     67       PMPE     C1       CTL2    -0.800000E-01   12.0110           0   0.00000     -0.301140E-02
      8208 MEMB     67       PMPE     HA       HAL2     0.900000E-01   1.00800           0   0.00000     -0.301140E-02
      8209 MEMB     67       PMPE     HB       HAL2     0.900000E-01   1.00800           0   0.00000     -0.301140E-02
      8210 MEMB     67       PMPE     C2       CTL1     0.170000       12.0110           0   0.00000     -0.301140E-02
      8211 MEMB     67       PMPE     HS       HAL1     0.900000E-01   1.00800           0   0.00000     -0.301140E-02
      8212 MEMB     67       PMPE     O21      OSL     -0.490000       15.9994           0   0.00000     -0.301140E-02
      8213 MEMB     67       PMPE     C21      CL       0.900000       12.0110           0   0.00000     -0.301140E-02
      8214 MEMB     67       PMPE     O22      OBL     -0.630000       15.9994           0   0.00000     -0.301140E-02
      8215 MEMB     67       PMPE     C22      CTL2    -0.220000       12.0110           0   0.00000     -0.301140E-02
      8216 MEMB     67       PMPE     H2R      HAL2     0.900000E-01   1.00800           0   0.00000     -0.301140E-02
      8217 MEMB     67       PMPE     H2S      HAL2     0.900000E-01   1.00800           0   0.00000     -0.301140E-02
      8218 MEMB     67       PMPE     C3       CTL2     0.800000E-01   12.0110           0   0.00000     -0.301140E-02
      8219 MEMB     67       PMPE     HX       HAL2     0.900000E-01   1.00800           0   0.00000     -0.301140E-02
      8220 MEMB     67       PMPE     HY       HAL2     0.900000E-01   1.00800           0   0.00000     -0.301140E-02
      8221 MEMB     67       PMPE     O31      OSL     -0.490000       15.9994           0   0.00000     -0.301140E-02
      8222 MEMB     67       PMPE     C31      CL       0.900000       12.0110           0   0.00000     -0.301140E-02
      8223 MEMB     67       PMPE     O32      OBL     -0.630000       15.9994           0   0.00000     -0.301140E-02
      8224 MEMB     67       PMPE     C32      CTL2    -0.220000       12.0110           0   0.00000     -0.301140E-02
      8225 MEMB     67       PMPE     H2X      HAL2     0.900000E-01   1.00800           0   0.00000     -0.301140E-02
      8226 MEMB     67       PMPE     H2Y      HAL2     0.900000E-01   1.00800           0   0.00000     -0.301140E-02
      8227 MEMB     67       PMPE     C23      CTL2    -0.180000       12.0110           0   0.00000     -0.301140E-02
      8228 MEMB     67       PMPE     H3R      HAL2     0.900000E-01   1.00800           0   0.00000     -0.301140E-02
      8229 MEMB     67       PMPE     H3S      HAL2     0.900000E-01   1.00800           0   0.00000     -0.301140E-02
      8230 MEMB     67       PMPE     C24      CTL2    -0.180000       12.0110           0   0.00000     -0.301140E-02
      8231 MEMB     67       PMPE     H4R      HAL2     0.900000E-01   1.00800           0   0.00000     -0.301140E-02
      8232 MEMB     67       PMPE     H4S      HAL2     0.900000E-01   1.00800           0   0.00000     -0.301140E-02
      8233 MEMB     67       PMPE     C25      CTL2    -0.180000       12.0110           0   0.00000     -0.301140E-02
      8234 MEMB     67       PMPE     H5R      HAL2     0.900000E-01   1.00800           0   0.00000     -0.301140E-02
      8235 MEMB     67       PMPE     H5S      HAL2     0.900000E-01   1.00800           0   0.00000     -0.301140E-02
      8236 MEMB     67       PMPE     C26      CTL2    -0.180000       12.0110           0   0.00000     -0.301140E-02
      8237 MEMB     67       PMPE     H6R      HAL2     0.900000E-01   1.00800           0   0.00000     -0.301140E-02
      8238 MEMB     67       PMPE     H6S      HAL2     0.900000E-01   1.00800           0   0.00000     -0.301140E-02
      8239 MEMB     67       PMPE     C27      CTL2    -0.180000       12.0110           0   0.00000     -0.301140E-02
      8240 MEMB     67       PMPE     H7R      HAL2     0.900000E-01   1.00800           0   0.00000     -0.301140E-02
      8241 MEMB     67       PMPE     H7S      HAL2     0.900000E-01   1.00800           0   0.00000     -0.301140E-02
      8242 MEMB     67       PMPE     C28      CTL2    -0.180000       12.0110           0   0.00000     -0.301140E-02
      8243 MEMB     67       PMPE     H8R      HAL2     0.900000E-01   1.00800           0   0.00000     -0.301140E-02
      8244 MEMB     67       PMPE     H8S      HAL2     0.900000E-01   1.00800           0   0.00000     -0.301140E-02
      8245 MEMB     67       PMPE     C29      CG3RC1  -0.900000E-01   12.0110           0   0.00000     -0.301140E-02
      8246 MEMB     67       PMPE     H9R      HGA1     0.900000E-01   1.00800           0   0.00000     -0.301140E-02
      8247 MEMB     67       PMPE     C217     CG3C31  -0.180000       12.0110           0   0.00000     -0.301140E-02
      8248 MEMB     67       PMPE     H17R     HGA2     0.900000E-01   1.00800           0   0.00000     -0.301140E-02
      8249 MEMB     67       PMPE     H17S     HGA2     0.900000E-01   1.00800           0   0.00000     -0.301140E-02
      8250 MEMB     67       PMPE     C210     CG3RC1  -0.900000E-01   12.0110           0   0.00000     -0.301140E-02
      8251 MEMB     67       PMPE     H10R     HGA1     0.900000E-01   1.00800           0   0.00000     -0.301140E-02
      8252 MEMB     67       PMPE     C211     CTL2    -0.180000       12.0110           0   0.00000     -0.301140E-02
      8253 MEMB     67       PMPE     H11R     HAL2     0.900000E-01   1.00800           0   0.00000     -0.301140E-02
      8254 MEMB     67       PMPE     H11S     HAL2     0.900000E-01   1.00800           0   0.00000     -0.301140E-02
      8255 MEMB     67       PMPE     C212     CTL2    -0.180000       12.0110           0   0.00000     -0.301140E-02
      8256 MEMB     67       PMPE     H12R     HAL2     0.900000E-01   1.00800           0   0.00000     -0.301140E-02
      8257 MEMB     67       PMPE     H12S     HAL2     0.900000E-01   1.00800           0   0.00000     -0.301140E-02
      8258 MEMB     67       PMPE     C213     CTL2    -0.180000       12.0110           0   0.00000     -0.301140E-02
      8259 MEMB     67       PMPE     H13R     HAL2     0.900000E-01   1.00800           0   0.00000     -0.301140E-02
      8260 MEMB     67       PMPE     H13S     HAL2     0.900000E-01   1.00800           0   0.00000     -0.301140E-02
      8261 MEMB     67       PMPE     C214     CTL2    -0.180000       12.0110           0   0.00000     -0.301140E-02
      8262 MEMB     67       PMPE     H14R     HAL2     0.900000E-01   1.00800           0   0.00000     -0.301140E-02
      8263 MEMB     67       PMPE     H14S     HAL2     0.900000E-01   1.00800           0   0.00000     -0.301140E-02
      8264 MEMB     67       PMPE     C215     CTL2    -0.180000       12.0110           0   0.00000     -0.301140E-02
      8265 MEMB     67       PMPE     H15R     HAL2     0.900000E-01   1.00800           0   0.00000     -0.301140E-02
      8266 MEMB     67       PMPE     H15S     HAL2     0.900000E-01   1.00800           0   0.00000     -0.301140E-02
      8267 MEMB     67       PMPE     C216     CTL3    -0.270000       12.0110           0   0.00000     -0.301140E-02
      8268 MEMB     67       PMPE     H16R     HAL3     0.900000E-01   1.00800           0   0.00000     -0.301140E-02
      8269 MEMB     67       PMPE     H16S     HAL3     0.900000E-01   1.00800           0   0.00000     -0.301140E-02
      8270 MEMB     67       PMPE     H16T     HAL3     0.900000E-01   1.00800           0   0.00000     -0.301140E-02
      8271 MEMB     67       PMPE     C33      CTL2    -0.180000       12.0110           0   0.00000     -0.301140E-02
      8272 MEMB     67       PMPE     H3X      HAL2     0.900000E-01   1.00800           0   0.00000     -0.301140E-02
      8273 MEMB     67       PMPE     H3Y      HAL2     0.900000E-01   1.00800           0   0.00000     -0.301140E-02
      8274 MEMB     67       PMPE     C34      CTL2    -0.180000       12.0110           0   0.00000     -0.301140E-02
      8275 MEMB     67       PMPE     H4X      HAL2     0.900000E-01   1.00800           0   0.00000     -0.301140E-02
      8276 MEMB     67       PMPE     H4Y      HAL2     0.900000E-01   1.00800           0   0.00000     -0.301140E-02
      8277 MEMB     67       PMPE     C35      CTL2    -0.180000       12.0110           0   0.00000     -0.301140E-02
      8278 MEMB     67       PMPE     H5X      HAL2     0.900000E-01   1.00800           0   0.00000     -0.301140E-02
      8279 MEMB     67       PMPE     H5Y      HAL2     0.900000E-01   1.00800           0   0.00000     -0.301140E-02
      8280 MEMB     67       PMPE     C36      CTL2    -0.180000       12.0110           0   0.00000     -0.301140E-02
      8281 MEMB     67       PMPE     H6X      HAL2     0.900000E-01   1.00800           0   0.00000     -0.301140E-02
      8282 MEMB     67       PMPE     H6Y      HAL2     0.900000E-01   1.00800           0   0.00000     -0.301140E-02
      8283 MEMB     67       PMPE     C37      CTL2    -0.180000       12.0110           0   0.00000     -0.301140E-02
      8284 MEMB     67       PMPE     H7X      HAL2     0.900000E-01   1.00800           0   0.00000     -0.301140E-02
      8285 MEMB     67       PMPE     H7Y      HAL2     0.900000E-01   1.00800           0   0.00000     -0.301140E-02
      8286 MEMB     67       PMPE     C38      CTL2    -0.180000       12.0110           0   0.00000     -0.301140E-02
      8287 MEMB     67       PMPE     H8X      HAL2     0.900000E-01   1.00800           0   0.00000     -0.301140E-02
      8288 MEMB     67       PMPE     H8Y      HAL2     0.900000E-01   1.00800           0   0.00000     -0.301140E-02
      8289 MEMB     67       PMPE     C39      CTL2    -0.180000       12.0110           0   0.00000     -0.301140E-02
      8290 MEMB     67       PMPE     H9X      HAL2     0.900000E-01   1.00800           0   0.00000     -0.301140E-02
      8291 MEMB     67       PMPE     H9Y      HAL2     0.900000E-01   1.00800           0   0.00000     -0.301140E-02
      8292 MEMB     67       PMPE     C310     CTL2    -0.180000       12.0110           0   0.00000     -0.301140E-02
      8293 MEMB     67       PMPE     H10X     HAL2     0.900000E-01   1.00800           0   0.00000     -0.301140E-02
      8294 MEMB     67       PMPE     H10Y     HAL2     0.900000E-01   1.00800           0   0.00000     -0.301140E-02
      8295 MEMB     67       PMPE     C311     CTL2    -0.180000       12.0110           0   0.00000     -0.301140E-02
      8296 MEMB     67       PMPE     H11X     HAL2     0.900000E-01   1.00800           0   0.00000     -0.301140E-02
      8297 MEMB     67       PMPE     H11Y     HAL2     0.900000E-01   1.00800           0   0.00000     -0.301140E-02
      8298 MEMB     67       PMPE     C312     CTL2    -0.180000       12.0110           0   0.00000     -0.301140E-02
      8299 MEMB     67       PMPE     H12X     HAL2     0.900000E-01   1.00800           0   0.00000     -0.301140E-02
      8300 MEMB     67       PMPE     H12Y     HAL2     0.900000E-01   1.00800           0   0.00000     -0.301140E-02
      8301 MEMB     67       PMPE     C313     CTL2    -0.180000       12.0110           0   0.00000     -0.301140E-02
      8302 MEMB     67       PMPE     H13X     HAL2     0.900000E-01   1.00800           0   0.00000     -0.301140E-02
      8303 MEMB     67       PMPE     H13Y     HAL2     0.900000E-01   1.00800           0   0.00000     -0.301140E-02
      8304 MEMB     67       PMPE     C314     CTL2    -0.180000       12.0110           0   0.00000     -0.301140E-02
      8305 MEMB     67       PMPE     H14X     HAL2     0.900000E-01   1.00800           0   0.00000     -0.301140E-02
      8306 MEMB     67       PMPE     H14Y     HAL2     0.900000E-01   1.00800           0   0.00000     -0.301140E-02
      8307 MEMB     67       PMPE     C315     CTL2    -0.180000       12.0110           0   0.00000     -0.301140E-02
      8308 MEMB     67       PMPE     H15X     HAL2     0.900000E-01   1.00800           0   0.00000     -0.301140E-02
      8309 MEMB     67       PMPE     H15Y     HAL2     0.900000E-01   1.00800           0   0.00000     -0.301140E-02
      8310 MEMB     67       PMPE     C316     CTL3    -0.270000       12.0110           0   0.00000     -0.301140E-02
      8311 MEMB     67       PMPE     H16X     HAL3     0.900000E-01   1.00800           0   0.00000     -0.301140E-02
      8312 MEMB     67       PMPE     H16Y     HAL3     0.900000E-01   1.00800           0   0.00000     -0.301140E-02
      8313 MEMB     67       PMPE     H16Z     HAL3     0.900000E-01   1.00800           0   0.00000     -0.301140E-02
      8314 MEMB     68       PYPG     C13      CTL2     0.500000E-01   12.0110           0   0.00000     -0.301140E-02
      8315 MEMB     68       PYPG     H13A     HAL2     0.900000E-01   1.00800           0   0.00000     -0.301140E-02
      8316 MEMB     68       PYPG     H13B     HAL2     0.900000E-01   1.00800           0   0.00000     -0.301140E-02
      8317 MEMB     68       PYPG     OC3      OHL     -0.660000       15.9994           0   0.00000     -0.301140E-02
      8318 MEMB     68       PYPG     HO3      HOL      0.430000       1.00800           0   0.00000     -0.301140E-02
      8319 MEMB     68       PYPG     C12      CTL1     0.140000       12.0110           0   0.00000     -0.301140E-02
      8320 MEMB     68       PYPG     H12A     HAL1     0.900000E-01   1.00800           0   0.00000     -0.301140E-02
      8321 MEMB     68       PYPG     OC2      OHL     -0.660000       15.9994           0   0.00000     -0.301140E-02
      8322 MEMB     68       PYPG     HO2      HOL      0.430000       1.00800           0   0.00000     -0.301140E-02
      8323 MEMB     68       PYPG     C11      CTL2    -0.800000E-01   12.0110           0   0.00000     -0.301140E-02
      8324 MEMB     68       PYPG     H11A     HAL2     0.900000E-01   1.00800           0   0.00000     -0.301140E-02
      8325 MEMB     68       PYPG     H11B     HAL2     0.900000E-01   1.00800           0   0.00000     -0.301140E-02
      8326 MEMB     68       PYPG     P        PL        1.50000       30.9740           0   0.00000     -0.301140E-02
      8327 MEMB     68       PYPG     O13      O2L     -0.780000       15.9994           0   0.00000     -0.301140E-02
      8328 MEMB     68       PYPG     O14      O2L     -0.780000       15.9994           0   0.00000     -0.301140E-02
      8329 MEMB     68       PYPG     O11      OSLP    -0.570000       15.9994           0   0.00000     -0.301140E-02
      8330 MEMB     68       PYPG     O12      OSLP    -0.570000       15.9994           0   0.00000     -0.301140E-02
      8331 MEMB     68       PYPG     C1       CTL2    -0.800000E-01   12.0110           0   0.00000     -0.301140E-02
      8332 MEMB     68       PYPG     HA       HAL2     0.900000E-01   1.00800           0   0.00000     -0.301140E-02
      8333 MEMB     68       PYPG     HB       HAL2     0.900000E-01   1.00800           0   0.00000     -0.301140E-02
      8334 MEMB     68       PYPG     C2       CTL1     0.170000       12.0110           0   0.00000     -0.301140E-02
      8335 MEMB     68       PYPG     HS       HAL1     0.900000E-01   1.00800           0   0.00000     -0.301140E-02
      8336 MEMB     68       PYPG     O21      OSL     -0.490000       15.9994           0   0.00000     -0.301140E-02
      8337 MEMB     68       PYPG     C21      CL       0.900000       12.0110           0   0.00000     -0.301140E-02
      8338 MEMB     68       PYPG     O22      OBL     -0.630000       15.9994           0   0.00000     -0.301140E-02
      8339 MEMB     68       PYPG     C22      CTL2    -0.220000       12.0110           0   0.00000     -0.301140E-02
      8340 MEMB     68       PYPG     H2R      HAL2     0.900000E-01   1.00800           0   0.00000     -0.301140E-02
      8341 MEMB     68       PYPG     H2S      HAL2     0.900000E-01   1.00800           0   0.00000     -0.301140E-02
      8342 MEMB     68       PYPG     C3       CTL2     0.800000E-01   12.0110           0   0.00000     -0.301140E-02
      8343 MEMB     68       PYPG     HX       HAL2     0.900000E-01   1.00800           0   0.00000     -0.301140E-02
      8344 MEMB     68       PYPG     HY       HAL2     0.900000E-01   1.00800           0   0.00000     -0.301140E-02
      8345 MEMB     68       PYPG     O31      OSL     -0.490000       15.9994           0   0.00000     -0.301140E-02
      8346 MEMB     68       PYPG     C31      CL       0.900000       12.0110           0   0.00000     -0.301140E-02
      8347 MEMB     68       PYPG     O32      OBL     -0.630000       15.9994           0   0.00000     -0.301140E-02
      8348 MEMB     68       PYPG     C32      CTL2    -0.220000       12.0110           0   0.00000     -0.301140E-02
      8349 MEMB     68       PYPG     H2X      HAL2     0.900000E-01   1.00800           0   0.00000     -0.301140E-02
      8350 MEMB     68       PYPG     H2Y      HAL2     0.900000E-01   1.00800           0   0.00000     -0.301140E-02
      8351 MEMB     68       PYPG     C23      CTL2    -0.180000       12.0110           0   0.00000     -0.301140E-02
      8352 MEMB     68       PYPG     H3R      HAL2     0.900000E-01   1.00800           0   0.00000     -0.301140E-02
      8353 MEMB     68       PYPG     H3S      HAL2     0.900000E-01   1.00800           0   0.00000     -0.301140E-02
      8354 MEMB     68       PYPG     C24      CTL2    -0.180000       12.0110           0   0.00000     -0.301140E-02
      8355 MEMB     68       PYPG     H4R      HAL2     0.900000E-01   1.00800           0   0.00000     -0.301140E-02
      8356 MEMB     68       PYPG     H4S      HAL2     0.900000E-01   1.00800           0   0.00000     -0.301140E-02
      8357 MEMB     68       PYPG     C25      CTL2    -0.180000       12.0110           0   0.00000     -0.301140E-02
      8358 MEMB     68       PYPG     H5R      HAL2     0.900000E-01   1.00800           0   0.00000     -0.301140E-02
      8359 MEMB     68       PYPG     H5S      HAL2     0.900000E-01   1.00800           0   0.00000     -0.301140E-02
      8360 MEMB     68       PYPG     C26      CTL2    -0.180000       12.0110           0   0.00000     -0.301140E-02
      8361 MEMB     68       PYPG     H6R      HAL2     0.900000E-01   1.00800           0   0.00000     -0.301140E-02
      8362 MEMB     68       PYPG     H6S      HAL2     0.900000E-01   1.00800           0   0.00000     -0.301140E-02
      8363 MEMB     68       PYPG     C27      CTL2    -0.180000       12.0110           0   0.00000     -0.301140E-02
      8364 MEMB     68       PYPG     H7R      HAL2     0.900000E-01   1.00800           0   0.00000     -0.301140E-02
      8365 MEMB     68       PYPG     H7S      HAL2     0.900000E-01   1.00800           0   0.00000     -0.301140E-02
      8366 MEMB     68       PYPG     C28      CTL2    -0.180000       12.0110           0   0.00000     -0.301140E-02
      8367 MEMB     68       PYPG     H8R      HAL2     0.900000E-01   1.00800           0   0.00000     -0.301140E-02
      8368 MEMB     68       PYPG     H8S      HAL2     0.900000E-01   1.00800           0   0.00000     -0.301140E-02
      8369 MEMB     68       PYPG     C29      CEL1    -0.150000       12.0110           0   0.00000     -0.301140E-02
      8370 MEMB     68       PYPG     H9R      HEL1     0.150000       1.00800           0   0.00000     -0.301140E-02
      8371 MEMB     68       PYPG     C210     CEL1    -0.150000       12.0110           0   0.00000     -0.301140E-02
      8372 MEMB     68       PYPG     H10R     HEL1     0.150000       1.00800           0   0.00000     -0.301140E-02
      8373 MEMB     68       PYPG     C211     CTL2    -0.180000       12.0110           0   0.00000     -0.301140E-02
      8374 MEMB     68       PYPG     H11R     HAL2     0.900000E-01   1.00800           0   0.00000     -0.301140E-02
      8375 MEMB     68       PYPG     H11S     HAL2     0.900000E-01   1.00800           0   0.00000     -0.301140E-02
      8376 MEMB     68       PYPG     C212     CTL2    -0.180000       12.0110           0   0.00000     -0.301140E-02
      8377 MEMB     68       PYPG     H12R     HAL2     0.900000E-01   1.00800           0   0.00000     -0.301140E-02
      8378 MEMB     68       PYPG     H12S     HAL2     0.900000E-01   1.00800           0   0.00000     -0.301140E-02
      8379 MEMB     68       PYPG     C213     CTL2    -0.180000       12.0110           0   0.00000     -0.301140E-02
      8380 MEMB     68       PYPG     H13R     HAL2     0.900000E-01   1.00800           0   0.00000     -0.301140E-02
      8381 MEMB     68       PYPG     H13S     HAL2     0.900000E-01   1.00800           0   0.00000     -0.301140E-02
      8382 MEMB     68       PYPG     C214     CTL2    -0.180000       12.0110           0   0.00000     -0.301140E-02
      8383 MEMB     68       PYPG     H14R     HAL2     0.900000E-01   1.00800           0   0.00000     -0.301140E-02
      8384 MEMB     68       PYPG     H14S     HAL2     0.900000E-01   1.00800           0   0.00000     -0.301140E-02
      8385 MEMB     68       PYPG     C215     CTL2    -0.180000       12.0110           0   0.00000     -0.301140E-02
      8386 MEMB     68       PYPG     H15R     HAL2     0.900000E-01   1.00800           0   0.00000     -0.301140E-02
      8387 MEMB     68       PYPG     H15S     HAL2     0.900000E-01   1.00800           0   0.00000     -0.301140E-02
      8388 MEMB     68       PYPG     C216     CTL3    -0.270000       12.0110           0   0.00000     -0.301140E-02
      8389 MEMB     68       PYPG     H16R     HAL3     0.900000E-01   1.00800           0   0.00000     -0.301140E-02
      8390 MEMB     68       PYPG     H16S     HAL3     0.900000E-01   1.00800           0   0.00000     -0.301140E-02
      8391 MEMB     68       PYPG     H16T     HAL3     0.900000E-01   1.00800           0   0.00000     -0.301140E-02
      8392 MEMB     68       PYPG     C33      CTL2    -0.180000       12.0110           0   0.00000     -0.301140E-02
      8393 MEMB     68       PYPG     H3X      HAL2     0.900000E-01   1.00800           0   0.00000     -0.301140E-02
      8394 MEMB     68       PYPG     H3Y      HAL2     0.900000E-01   1.00800           0   0.00000     -0.301140E-02
      8395 MEMB     68       PYPG     C34      CTL2    -0.180000       12.0110           0   0.00000     -0.301140E-02
      8396 MEMB     68       PYPG     H4X      HAL2     0.900000E-01   1.00800           0   0.00000     -0.301140E-02
      8397 MEMB     68       PYPG     H4Y      HAL2     0.900000E-01   1.00800           0   0.00000     -0.301140E-02
      8398 MEMB     68       PYPG     C35      CTL2    -0.180000       12.0110           0   0.00000     -0.301140E-02
      8399 MEMB     68       PYPG     H5X      HAL2     0.900000E-01   1.00800           0   0.00000     -0.301140E-02
      8400 MEMB     68       PYPG     H5Y      HAL2     0.900000E-01   1.00800           0   0.00000     -0.301140E-02
      8401 MEMB     68       PYPG     C36      CTL2    -0.180000       12.0110           0   0.00000     -0.301140E-02
      8402 MEMB     68       PYPG     H6X      HAL2     0.900000E-01   1.00800           0   0.00000     -0.301140E-02
      8403 MEMB     68       PYPG     H6Y      HAL2     0.900000E-01   1.00800           0   0.00000     -0.301140E-02
      8404 MEMB     68       PYPG     C37      CTL2    -0.180000       12.0110           0   0.00000     -0.301140E-02
      8405 MEMB     68       PYPG     H7X      HAL2     0.900000E-01   1.00800           0   0.00000     -0.301140E-02
      8406 MEMB     68       PYPG     H7Y      HAL2     0.900000E-01   1.00800           0   0.00000     -0.301140E-02
      8407 MEMB     68       PYPG     C38      CTL2    -0.180000       12.0110           0   0.00000     -0.301140E-02
      8408 MEMB     68       PYPG     H8X      HAL2     0.900000E-01   1.00800           0   0.00000     -0.301140E-02
      8409 MEMB     68       PYPG     H8Y      HAL2     0.900000E-01   1.00800           0   0.00000     -0.301140E-02
      8410 MEMB     68       PYPG     C39      CTL2    -0.180000       12.0110           0   0.00000     -0.301140E-02
      8411 MEMB     68       PYPG     H9X      HAL2     0.900000E-01   1.00800           0   0.00000     -0.301140E-02
      8412 MEMB     68       PYPG     H9Y      HAL2     0.900000E-01   1.00800           0   0.00000     -0.301140E-02
      8413 MEMB     68       PYPG     C310     CTL2    -0.180000       12.0110           0   0.00000     -0.301140E-02
      8414 MEMB     68       PYPG     H10X     HAL2     0.900000E-01   1.00800           0   0.00000     -0.301140E-02
      8415 MEMB     68       PYPG     H10Y     HAL2     0.900000E-01   1.00800           0   0.00000     -0.301140E-02
      8416 MEMB     68       PYPG     C311     CTL2    -0.180000       12.0110           0   0.00000     -0.301140E-02
      8417 MEMB     68       PYPG     H11X     HAL2     0.900000E-01   1.00800           0   0.00000     -0.301140E-02
      8418 MEMB     68       PYPG     H11Y     HAL2     0.900000E-01   1.00800           0   0.00000     -0.301140E-02
      8419 MEMB     68       PYPG     C312     CTL2    -0.180000       12.0110           0   0.00000     -0.301140E-02
      8420 MEMB     68       PYPG     H12X     HAL2     0.900000E-01   1.00800           0   0.00000     -0.301140E-02
      8421 MEMB     68       PYPG     H12Y     HAL2     0.900000E-01   1.00800           0   0.00000     -0.301140E-02
      8422 MEMB     68       PYPG     C313     CTL2    -0.180000       12.0110           0   0.00000     -0.301140E-02
      8423 MEMB     68       PYPG     H13X     HAL2     0.900000E-01   1.00800           0   0.00000     -0.301140E-02
      8424 MEMB     68       PYPG     H13Y     HAL2     0.900000E-01   1.00800           0   0.00000     -0.301140E-02
      8425 MEMB     68       PYPG     C314     CTL2    -0.180000       12.0110           0   0.00000     -0.301140E-02
      8426 MEMB     68       PYPG     H14X     HAL2     0.900000E-01   1.00800           0   0.00000     -0.301140E-02
      8427 MEMB     68       PYPG     H14Y     HAL2     0.900000E-01   1.00800           0   0.00000     -0.301140E-02
      8428 MEMB     68       PYPG     C315     CTL2    -0.180000       12.0110           0   0.00000     -0.301140E-02
      8429 MEMB     68       PYPG     H15X     HAL2     0.900000E-01   1.00800           0   0.00000     -0.301140E-02
      8430 MEMB     68       PYPG     H15Y     HAL2     0.900000E-01   1.00800           0   0.00000     -0.301140E-02
      8431 MEMB     68       PYPG     C316     CTL3    -0.270000       12.0110           0   0.00000     -0.301140E-02
      8432 MEMB     68       PYPG     H16X     HAL3     0.900000E-01   1.00800           0   0.00000     -0.301140E-02
      8433 MEMB     68       PYPG     H16Y     HAL3     0.900000E-01   1.00800           0   0.00000     -0.301140E-02
      8434 MEMB     68       PYPG     H16Z     HAL3     0.900000E-01   1.00800           0   0.00000     -0.301140E-02
      8435 MEMB     69       PMPE     N        NH3L    -0.300000       14.0070           0   0.00000     -0.301140E-02
      8436 MEMB     69       PMPE     HN1      HCL      0.330000       1.00800           0   0.00000     -0.301140E-02
      8437 MEMB     69       PMPE     HN2      HCL      0.330000       1.00800           0   0.00000     -0.301140E-02
      8438 MEMB     69       PMPE     HN3      HCL      0.330000       1.00800           0   0.00000     -0.301140E-02
      8439 MEMB     69       PMPE     C12      CTL2     0.130000       12.0110           0   0.00000     -0.301140E-02
      8440 MEMB     69       PMPE     H12A     HAL2     0.900000E-01   1.00800           0   0.00000     -0.301140E-02
      8441 MEMB     69       PMPE     H12B     HAL2     0.900000E-01   1.00800           0   0.00000     -0.301140E-02
      8442 MEMB     69       PMPE     C11      CTL2    -0.800000E-01   12.0110           0   0.00000     -0.301140E-02
      8443 MEMB     69       PMPE     H11A     HAL2     0.900000E-01   1.00800           0   0.00000     -0.301140E-02
      8444 MEMB     69       PMPE     H11B     HAL2     0.900000E-01   1.00800           0   0.00000     -0.301140E-02
      8445 MEMB     69       PMPE     P        PL        1.50000       30.9740           0   0.00000     -0.301140E-02
      8446 MEMB     69       PMPE     O13      O2L     -0.780000       15.9994           0   0.00000     -0.301140E-02
      8447 MEMB     69       PMPE     O14      O2L     -0.780000       15.9994           0   0.00000     -0.301140E-02
      8448 MEMB     69       PMPE     O11      OSLP    -0.570000       15.9994           0   0.00000     -0.301140E-02
      8449 MEMB     69       PMPE     O12      OSLP    -0.570000       15.9994           0   0.00000     -0.301140E-02
      8450 MEMB     69       PMPE     C1       CTL2    -0.800000E-01   12.0110           0   0.00000     -0.301140E-02
      8451 MEMB     69       PMPE     HA       HAL2     0.900000E-01   1.00800           0   0.00000     -0.301140E-02
      8452 MEMB     69       PMPE     HB       HAL2     0.900000E-01   1.00800           0   0.00000     -0.301140E-02
      8453 MEMB     69       PMPE     C2       CTL1     0.170000       12.0110           0   0.00000     -0.301140E-02
      8454 MEMB     69       PMPE     HS       HAL1     0.900000E-01   1.00800           0   0.00000     -0.301140E-02
      8455 MEMB     69       PMPE     O21      OSL     -0.490000       15.9994           0   0.00000     -0.301140E-02
      8456 MEMB     69       PMPE     C21      CL       0.900000       12.0110           0   0.00000     -0.301140E-02
      8457 MEMB     69       PMPE     O22      OBL     -0.630000       15.9994           0   0.00000     -0.301140E-02
      8458 MEMB     69       PMPE     C22      CTL2    -0.220000       12.0110           0   0.00000     -0.301140E-02
      8459 MEMB     69       PMPE     H2R      HAL2     0.900000E-01   1.00800           0   0.00000     -0.301140E-02
      8460 MEMB     69       PMPE     H2S      HAL2     0.900000E-01   1.00800           0   0.00000     -0.301140E-02
      8461 MEMB     69       PMPE     C3       CTL2     0.800000E-01   12.0110           0   0.00000     -0.301140E-02
      8462 MEMB     69       PMPE     HX       HAL2     0.900000E-01   1.00800           0   0.00000     -0.301140E-02
      8463 MEMB     69       PMPE     HY       HAL2     0.900000E-01   1.00800           0   0.00000     -0.301140E-02
      8464 MEMB     69       PMPE     O31      OSL     -0.490000       15.9994           0   0.00000     -0.301140E-02
      8465 MEMB     69       PMPE     C31      CL       0.900000       12.0110           0   0.00000     -0.301140E-02
      8466 MEMB     69       PMPE     O32      OBL     -0.630000       15.9994           0   0.00000     -0.301140E-02
      8467 MEMB     69       PMPE     C32      CTL2    -0.220000       12.0110           0   0.00000     -0.301140E-02
      8468 MEMB     69       PMPE     H2X      HAL2     0.900000E-01   1.00800           0   0.00000     -0.301140E-02
      8469 MEMB     69       PMPE     H2Y      HAL2     0.900000E-01   1.00800           0   0.00000     -0.301140E-02
      8470 MEMB     69       PMPE     C23      CTL2    -0.180000       12.0110           0   0.00000     -0.301140E-02
      8471 MEMB     69       PMPE     H3R      HAL2     0.900000E-01   1.00800           0   0.00000     -0.301140E-02
      8472 MEMB     69       PMPE     H3S      HAL2     0.900000E-01   1.00800           0   0.00000     -0.301140E-02
      8473 MEMB     69       PMPE     C24      CTL2    -0.180000       12.0110           0   0.00000     -0.301140E-02
      8474 MEMB     69       PMPE     H4R      HAL2     0.900000E-01   1.00800           0   0.00000     -0.301140E-02
      8475 MEMB     69       PMPE     H4S      HAL2     0.900000E-01   1.00800           0   0.00000     -0.301140E-02
      8476 MEMB     69       PMPE     C25      CTL2    -0.180000       12.0110           0   0.00000     -0.301140E-02
      8477 MEMB     69       PMPE     H5R      HAL2     0.900000E-01   1.00800           0   0.00000     -0.301140E-02
      8478 MEMB     69       PMPE     H5S      HAL2     0.900000E-01   1.00800           0   0.00000     -0.301140E-02
      8479 MEMB     69       PMPE     C26      CTL2    -0.180000       12.0110           0   0.00000     -0.301140E-02
      8480 MEMB     69       PMPE     H6R      HAL2     0.900000E-01   1.00800           0   0.00000     -0.301140E-02
      8481 MEMB     69       PMPE     H6S      HAL2     0.900000E-01   1.00800           0   0.00000     -0.301140E-02
      8482 MEMB     69       PMPE     C27      CTL2    -0.180000       12.0110           0   0.00000     -0.301140E-02
      8483 MEMB     69       PMPE     H7R      HAL2     0.900000E-01   1.00800           0   0.00000     -0.301140E-02
      8484 MEMB     69       PMPE     H7S      HAL2     0.900000E-01   1.00800           0   0.00000     -0.301140E-02
      8485 MEMB     69       PMPE     C28      CTL2    -0.180000       12.0110           0   0.00000     -0.301140E-02
      8486 MEMB     69       PMPE     H8R      HAL2     0.900000E-01   1.00800           0   0.00000     -0.301140E-02
      8487 MEMB     69       PMPE     H8S      HAL2     0.900000E-01   1.00800           0   0.00000     -0.301140E-02
      8488 MEMB     69       PMPE     C29      CG3RC1  -0.900000E-01   12.0110           0   0.00000     -0.301140E-02
      8489 MEMB     69       PMPE     H9R      HGA1     0.900000E-01   1.00800           0   0.00000     -0.301140E-02
      8490 MEMB     69       PMPE     C217     CG3C31  -0.180000       12.0110           0   0.00000     -0.301140E-02
      8491 MEMB     69       PMPE     H17R     HGA2     0.900000E-01   1.00800           0   0.00000     -0.301140E-02
      8492 MEMB     69       PMPE     H17S     HGA2     0.900000E-01   1.00800           0   0.00000     -0.301140E-02
      8493 MEMB     69       PMPE     C210     CG3RC1  -0.900000E-01   12.0110           0   0.00000     -0.301140E-02
      8494 MEMB     69       PMPE     H10R     HGA1     0.900000E-01   1.00800           0   0.00000     -0.301140E-02
      8495 MEMB     69       PMPE     C211     CTL2    -0.180000       12.0110           0   0.00000     -0.301140E-02
      8496 MEMB     69       PMPE     H11R     HAL2     0.900000E-01   1.00800           0   0.00000     -0.301140E-02
      8497 MEMB     69       PMPE     H11S     HAL2     0.900000E-01   1.00800           0   0.00000     -0.301140E-02
      8498 MEMB     69       PMPE     C212     CTL2    -0.180000       12.0110           0   0.00000     -0.301140E-02
      8499 MEMB     69       PMPE     H12R     HAL2     0.900000E-01   1.00800           0   0.00000     -0.301140E-02
      8500 MEMB     69       PMPE     H12S     HAL2     0.900000E-01   1.00800           0   0.00000     -0.301140E-02
      8501 MEMB     69       PMPE     C213     CTL2    -0.180000       12.0110           0   0.00000     -0.301140E-02
      8502 MEMB     69       PMPE     H13R     HAL2     0.900000E-01   1.00800           0   0.00000     -0.301140E-02
      8503 MEMB     69       PMPE     H13S     HAL2     0.900000E-01   1.00800           0   0.00000     -0.301140E-02
      8504 MEMB     69       PMPE     C214     CTL2    -0.180000       12.0110           0   0.00000     -0.301140E-02
      8505 MEMB     69       PMPE     H14R     HAL2     0.900000E-01   1.00800           0   0.00000     -0.301140E-02
      8506 MEMB     69       PMPE     H14S     HAL2     0.900000E-01   1.00800           0   0.00000     -0.301140E-02
      8507 MEMB     69       PMPE     C215     CTL2    -0.180000       12.0110           0   0.00000     -0.301140E-02
      8508 MEMB     69       PMPE     H15R     HAL2     0.900000E-01   1.00800           0   0.00000     -0.301140E-02
      8509 MEMB     69       PMPE     H15S     HAL2     0.900000E-01   1.00800           0   0.00000     -0.301140E-02
      8510 MEMB     69       PMPE     C216     CTL3    -0.270000       12.0110           0   0.00000     -0.301140E-02
      8511 MEMB     69       PMPE     H16R     HAL3     0.900000E-01   1.00800           0   0.00000     -0.301140E-02
      8512 MEMB     69       PMPE     H16S     HAL3     0.900000E-01   1.00800           0   0.00000     -0.301140E-02
      8513 MEMB     69       PMPE     H16T     HAL3     0.900000E-01   1.00800           0   0.00000     -0.301140E-02
      8514 MEMB     69       PMPE     C33      CTL2    -0.180000       12.0110           0   0.00000     -0.301140E-02
      8515 MEMB     69       PMPE     H3X      HAL2     0.900000E-01   1.00800           0   0.00000     -0.301140E-02
      8516 MEMB     69       PMPE     H3Y      HAL2     0.900000E-01   1.00800           0   0.00000     -0.301140E-02
      8517 MEMB     69       PMPE     C34      CTL2    -0.180000       12.0110           0   0.00000     -0.301140E-02
      8518 MEMB     69       PMPE     H4X      HAL2     0.900000E-01   1.00800           0   0.00000     -0.301140E-02
      8519 MEMB     69       PMPE     H4Y      HAL2     0.900000E-01   1.00800           0   0.00000     -0.301140E-02
      8520 MEMB     69       PMPE     C35      CTL2    -0.180000       12.0110           0   0.00000     -0.301140E-02
      8521 MEMB     69       PMPE     H5X      HAL2     0.900000E-01   1.00800           0   0.00000     -0.301140E-02
      8522 MEMB     69       PMPE     H5Y      HAL2     0.900000E-01   1.00800           0   0.00000     -0.301140E-02
      8523 MEMB     69       PMPE     C36      CTL2    -0.180000       12.0110           0   0.00000     -0.301140E-02
      8524 MEMB     69       PMPE     H6X      HAL2     0.900000E-01   1.00800           0   0.00000     -0.301140E-02
      8525 MEMB     69       PMPE     H6Y      HAL2     0.900000E-01   1.00800           0   0.00000     -0.301140E-02
      8526 MEMB     69       PMPE     C37      CTL2    -0.180000       12.0110           0   0.00000     -0.301140E-02
      8527 MEMB     69       PMPE     H7X      HAL2     0.900000E-01   1.00800           0   0.00000     -0.301140E-02
      8528 MEMB     69       PMPE     H7Y      HAL2     0.900000E-01   1.00800           0   0.00000     -0.301140E-02
      8529 MEMB     69       PMPE     C38      CTL2    -0.180000       12.0110           0   0.00000     -0.301140E-02
      8530 MEMB     69       PMPE     H8X      HAL2     0.900000E-01   1.00800           0   0.00000     -0.301140E-02
      8531 MEMB     69       PMPE     H8Y      HAL2     0.900000E-01   1.00800           0   0.00000     -0.301140E-02
      8532 MEMB     69       PMPE     C39      CTL2    -0.180000       12.0110           0   0.00000     -0.301140E-02
      8533 MEMB     69       PMPE     H9X      HAL2     0.900000E-01   1.00800           0   0.00000     -0.301140E-02
      8534 MEMB     69       PMPE     H9Y      HAL2     0.900000E-01   1.00800           0   0.00000     -0.301140E-02
      8535 MEMB     69       PMPE     C310     CTL2    -0.180000       12.0110           0   0.00000     -0.301140E-02
      8536 MEMB     69       PMPE     H10X     HAL2     0.900000E-01   1.00800           0   0.00000     -0.301140E-02
      8537 MEMB     69       PMPE     H10Y     HAL2     0.900000E-01   1.00800           0   0.00000     -0.301140E-02
      8538 MEMB     69       PMPE     C311     CTL2    -0.180000       12.0110           0   0.00000     -0.301140E-02
      8539 MEMB     69       PMPE     H11X     HAL2     0.900000E-01   1.00800           0   0.00000     -0.301140E-02
      8540 MEMB     69       PMPE     H11Y     HAL2     0.900000E-01   1.00800           0   0.00000     -0.301140E-02
      8541 MEMB     69       PMPE     C312     CTL2    -0.180000       12.0110           0   0.00000     -0.301140E-02
      8542 MEMB     69       PMPE     H12X     HAL2     0.900000E-01   1.00800           0   0.00000     -0.301140E-02
      8543 MEMB     69       PMPE     H12Y     HAL2     0.900000E-01   1.00800           0   0.00000     -0.301140E-02
      8544 MEMB     69       PMPE     C313     CTL2    -0.180000       12.0110           0   0.00000     -0.301140E-02
      8545 MEMB     69       PMPE     H13X     HAL2     0.900000E-01   1.00800           0   0.00000     -0.301140E-02
      8546 MEMB     69       PMPE     H13Y     HAL2     0.900000E-01   1.00800           0   0.00000     -0.301140E-02
      8547 MEMB     69       PMPE     C314     CTL2    -0.180000       12.0110           0   0.00000     -0.301140E-02
      8548 MEMB     69       PMPE     H14X     HAL2     0.900000E-01   1.00800           0   0.00000     -0.301140E-02
      8549 MEMB     69       PMPE     H14Y     HAL2     0.900000E-01   1.00800           0   0.00000     -0.301140E-02
      8550 MEMB     69       PMPE     C315     CTL2    -0.180000       12.0110           0   0.00000     -0.301140E-02
      8551 MEMB     69       PMPE     H15X     HAL2     0.900000E-01   1.00800           0   0.00000     -0.301140E-02
      8552 MEMB     69       PMPE     H15Y     HAL2     0.900000E-01   1.00800           0   0.00000     -0.301140E-02
      8553 MEMB     69       PMPE     C316     CTL3    -0.270000       12.0110           0   0.00000     -0.301140E-02
      8554 MEMB     69       PMPE     H16X     HAL3     0.900000E-01   1.00800           0   0.00000     -0.301140E-02
      8555 MEMB     69       PMPE     H16Y     HAL3     0.900000E-01   1.00800           0   0.00000     -0.301140E-02
      8556 MEMB     69       PMPE     H16Z     HAL3     0.900000E-01   1.00800           0   0.00000     -0.301140E-02
      8557 MEMB     70       PMPE     N        NH3L    -0.300000       14.0070           0   0.00000     -0.301140E-02
      8558 MEMB     70       PMPE     HN1      HCL      0.330000       1.00800           0   0.00000     -0.301140E-02
      8559 MEMB     70       PMPE     HN2      HCL      0.330000       1.00800           0   0.00000     -0.301140E-02
      8560 MEMB     70       PMPE     HN3      HCL      0.330000       1.00800           0   0.00000     -0.301140E-02
      8561 MEMB     70       PMPE     C12      CTL2     0.130000       12.0110           0   0.00000     -0.301140E-02
      8562 MEMB     70       PMPE     H12A     HAL2     0.900000E-01   1.00800           0   0.00000     -0.301140E-02
      8563 MEMB     70       PMPE     H12B     HAL2     0.900000E-01   1.00800           0   0.00000     -0.301140E-02
      8564 MEMB     70       PMPE     C11      CTL2    -0.800000E-01   12.0110           0   0.00000     -0.301140E-02
      8565 MEMB     70       PMPE     H11A     HAL2     0.900000E-01   1.00800           0   0.00000     -0.301140E-02
      8566 MEMB     70       PMPE     H11B     HAL2     0.900000E-01   1.00800           0   0.00000     -0.301140E-02
      8567 MEMB     70       PMPE     P        PL        1.50000       30.9740           0   0.00000     -0.301140E-02
      8568 MEMB     70       PMPE     O13      O2L     -0.780000       15.9994           0   0.00000     -0.301140E-02
      8569 MEMB     70       PMPE     O14      O2L     -0.780000       15.9994           0   0.00000     -0.301140E-02
      8570 MEMB     70       PMPE     O11      OSLP    -0.570000       15.9994           0   0.00000     -0.301140E-02
      8571 MEMB     70       PMPE     O12      OSLP    -0.570000       15.9994           0   0.00000     -0.301140E-02
      8572 MEMB     70       PMPE     C1       CTL2    -0.800000E-01   12.0110           0   0.00000     -0.301140E-02
      8573 MEMB     70       PMPE     HA       HAL2     0.900000E-01   1.00800           0   0.00000     -0.301140E-02
      8574 MEMB     70       PMPE     HB       HAL2     0.900000E-01   1.00800           0   0.00000     -0.301140E-02
      8575 MEMB     70       PMPE     C2       CTL1     0.170000       12.0110           0   0.00000     -0.301140E-02
      8576 MEMB     70       PMPE     HS       HAL1     0.900000E-01   1.00800           0   0.00000     -0.301140E-02
      8577 MEMB     70       PMPE     O21      OSL     -0.490000       15.9994           0   0.00000     -0.301140E-02
      8578 MEMB     70       PMPE     C21      CL       0.900000       12.0110           0   0.00000     -0.301140E-02
      8579 MEMB     70       PMPE     O22      OBL     -0.630000       15.9994           0   0.00000     -0.301140E-02
      8580 MEMB     70       PMPE     C22      CTL2    -0.220000       12.0110           0   0.00000     -0.301140E-02
      8581 MEMB     70       PMPE     H2R      HAL2     0.900000E-01   1.00800           0   0.00000     -0.301140E-02
      8582 MEMB     70       PMPE     H2S      HAL2     0.900000E-01   1.00800           0   0.00000     -0.301140E-02
      8583 MEMB     70       PMPE     C3       CTL2     0.800000E-01   12.0110           0   0.00000     -0.301140E-02
      8584 MEMB     70       PMPE     HX       HAL2     0.900000E-01   1.00800           0   0.00000     -0.301140E-02
      8585 MEMB     70       PMPE     HY       HAL2     0.900000E-01   1.00800           0   0.00000     -0.301140E-02
      8586 MEMB     70       PMPE     O31      OSL     -0.490000       15.9994           0   0.00000     -0.301140E-02
      8587 MEMB     70       PMPE     C31      CL       0.900000       12.0110           0   0.00000     -0.301140E-02
      8588 MEMB     70       PMPE     O32      OBL     -0.630000       15.9994           0   0.00000     -0.301140E-02
      8589 MEMB     70       PMPE     C32      CTL2    -0.220000       12.0110           0   0.00000     -0.301140E-02
      8590 MEMB     70       PMPE     H2X      HAL2     0.900000E-01   1.00800           0   0.00000     -0.301140E-02
      8591 MEMB     70       PMPE     H2Y      HAL2     0.900000E-01   1.00800           0   0.00000     -0.301140E-02
      8592 MEMB     70       PMPE     C23      CTL2    -0.180000       12.0110           0   0.00000     -0.301140E-02
      8593 MEMB     70       PMPE     H3R      HAL2     0.900000E-01   1.00800           0   0.00000     -0.301140E-02
      8594 MEMB     70       PMPE     H3S      HAL2     0.900000E-01   1.00800           0   0.00000     -0.301140E-02
      8595 MEMB     70       PMPE     C24      CTL2    -0.180000       12.0110           0   0.00000     -0.301140E-02
      8596 MEMB     70       PMPE     H4R      HAL2     0.900000E-01   1.00800           0   0.00000     -0.301140E-02
      8597 MEMB     70       PMPE     H4S      HAL2     0.900000E-01   1.00800           0   0.00000     -0.301140E-02
      8598 MEMB     70       PMPE     C25      CTL2    -0.180000       12.0110           0   0.00000     -0.301140E-02
      8599 MEMB     70       PMPE     H5R      HAL2     0.900000E-01   1.00800           0   0.00000     -0.301140E-02
      8600 MEMB     70       PMPE     H5S      HAL2     0.900000E-01   1.00800           0   0.00000     -0.301140E-02
      8601 MEMB     70       PMPE     C26      CTL2    -0.180000       12.0110           0   0.00000     -0.301140E-02
      8602 MEMB     70       PMPE     H6R      HAL2     0.900000E-01   1.00800           0   0.00000     -0.301140E-02
      8603 MEMB     70       PMPE     H6S      HAL2     0.900000E-01   1.00800           0   0.00000     -0.301140E-02
      8604 MEMB     70       PMPE     C27      CTL2    -0.180000       12.0110           0   0.00000     -0.301140E-02
      8605 MEMB     70       PMPE     H7R      HAL2     0.900000E-01   1.00800           0   0.00000     -0.301140E-02
      8606 MEMB     70       PMPE     H7S      HAL2     0.900000E-01   1.00800           0   0.00000     -0.301140E-02
      8607 MEMB     70       PMPE     C28      CTL2    -0.180000       12.0110           0   0.00000     -0.301140E-02
      8608 MEMB     70       PMPE     H8R      HAL2     0.900000E-01   1.00800           0   0.00000     -0.301140E-02
      8609 MEMB     70       PMPE     H8S      HAL2     0.900000E-01   1.00800           0   0.00000     -0.301140E-02
      8610 MEMB     70       PMPE     C29      CG3RC1  -0.900000E-01   12.0110           0   0.00000     -0.301140E-02
      8611 MEMB     70       PMPE     H9R      HGA1     0.900000E-01   1.00800           0   0.00000     -0.301140E-02
      8612 MEMB     70       PMPE     C217     CG3C31  -0.180000       12.0110           0   0.00000     -0.301140E-02
      8613 MEMB     70       PMPE     H17R     HGA2     0.900000E-01   1.00800           0   0.00000     -0.301140E-02
      8614 MEMB     70       PMPE     H17S     HGA2     0.900000E-01   1.00800           0   0.00000     -0.301140E-02
      8615 MEMB     70       PMPE     C210     CG3RC1  -0.900000E-01   12.0110           0   0.00000     -0.301140E-02
      8616 MEMB     70       PMPE     H10R     HGA1     0.900000E-01   1.00800           0   0.00000     -0.301140E-02
      8617 MEMB     70       PMPE     C211     CTL2    -0.180000       12.0110           0   0.00000     -0.301140E-02
      8618 MEMB     70       PMPE     H11R     HAL2     0.900000E-01   1.00800           0   0.00000     -0.301140E-02
      8619 MEMB     70       PMPE     H11S     HAL2     0.900000E-01   1.00800           0   0.00000     -0.301140E-02
      8620 MEMB     70       PMPE     C212     CTL2    -0.180000       12.0110           0   0.00000     -0.301140E-02
      8621 MEMB     70       PMPE     H12R     HAL2     0.900000E-01   1.00800           0   0.00000     -0.301140E-02
      8622 MEMB     70       PMPE     H12S     HAL2     0.900000E-01   1.00800           0   0.00000     -0.301140E-02
      8623 MEMB     70       PMPE     C213     CTL2    -0.180000       12.0110           0   0.00000     -0.301140E-02
      8624 MEMB     70       PMPE     H13R     HAL2     0.900000E-01   1.00800           0   0.00000     -0.301140E-02
      8625 MEMB     70       PMPE     H13S     HAL2     0.900000E-01   1.00800           0   0.00000     -0.301140E-02
      8626 MEMB     70       PMPE     C214     CTL2    -0.180000       12.0110           0   0.00000     -0.301140E-02
      8627 MEMB     70       PMPE     H14R     HAL2     0.900000E-01   1.00800           0   0.00000     -0.301140E-02
      8628 MEMB     70       PMPE     H14S     HAL2     0.900000E-01   1.00800           0   0.00000     -0.301140E-02
      8629 MEMB     70       PMPE     C215     CTL2    -0.180000       12.0110           0   0.00000     -0.301140E-02
      8630 MEMB     70       PMPE     H15R     HAL2     0.900000E-01   1.00800           0   0.00000     -0.301140E-02
      8631 MEMB     70       PMPE     H15S     HAL2     0.900000E-01   1.00800           0   0.00000     -0.301140E-02
      8632 MEMB     70       PMPE     C216     CTL3    -0.270000       12.0110           0   0.00000     -0.301140E-02
      8633 MEMB     70       PMPE     H16R     HAL3     0.900000E-01   1.00800           0   0.00000     -0.301140E-02
      8634 MEMB     70       PMPE     H16S     HAL3     0.900000E-01   1.00800           0   0.00000     -0.301140E-02
      8635 MEMB     70       PMPE     H16T     HAL3     0.900000E-01   1.00800           0   0.00000     -0.301140E-02
      8636 MEMB     70       PMPE     C33      CTL2    -0.180000       12.0110           0   0.00000     -0.301140E-02
      8637 MEMB     70       PMPE     H3X      HAL2     0.900000E-01   1.00800           0   0.00000     -0.301140E-02
      8638 MEMB     70       PMPE     H3Y      HAL2     0.900000E-01   1.00800           0   0.00000     -0.301140E-02
      8639 MEMB     70       PMPE     C34      CTL2    -0.180000       12.0110           0   0.00000     -0.301140E-02
      8640 MEMB     70       PMPE     H4X      HAL2     0.900000E-01   1.00800           0   0.00000     -0.301140E-02
      8641 MEMB     70       PMPE     H4Y      HAL2     0.900000E-01   1.00800           0   0.00000     -0.301140E-02
      8642 MEMB     70       PMPE     C35      CTL2    -0.180000       12.0110           0   0.00000     -0.301140E-02
      8643 MEMB     70       PMPE     H5X      HAL2     0.900000E-01   1.00800           0   0.00000     -0.301140E-02
      8644 MEMB     70       PMPE     H5Y      HAL2     0.900000E-01   1.00800           0   0.00000     -0.301140E-02
      8645 MEMB     70       PMPE     C36      CTL2    -0.180000       12.0110           0   0.00000     -0.301140E-02
      8646 MEMB     70       PMPE     H6X      HAL2     0.900000E-01   1.00800           0   0.00000     -0.301140E-02
      8647 MEMB     70       PMPE     H6Y      HAL2     0.900000E-01   1.00800           0   0.00000     -0.301140E-02
      8648 MEMB     70       PMPE     C37      CTL2    -0.180000       12.0110           0   0.00000     -0.301140E-02
      8649 MEMB     70       PMPE     H7X      HAL2     0.900000E-01   1.00800           0   0.00000     -0.301140E-02
      8650 MEMB     70       PMPE     H7Y      HAL2     0.900000E-01   1.00800           0   0.00000     -0.301140E-02
      8651 MEMB     70       PMPE     C38      CTL2    -0.180000       12.0110           0   0.00000     -0.301140E-02
      8652 MEMB     70       PMPE     H8X      HAL2     0.900000E-01   1.00800           0   0.00000     -0.301140E-02
      8653 MEMB     70       PMPE     H8Y      HAL2     0.900000E-01   1.00800           0   0.00000     -0.301140E-02
      8654 MEMB     70       PMPE     C39      CTL2    -0.180000       12.0110           0   0.00000     -0.301140E-02
      8655 MEMB     70       PMPE     H9X      HAL2     0.900000E-01   1.00800           0   0.00000     -0.301140E-02
      8656 MEMB     70       PMPE     H9Y      HAL2     0.900000E-01   1.00800           0   0.00000     -0.301140E-02
      8657 MEMB     70       PMPE     C310     CTL2    -0.180000       12.0110           0   0.00000     -0.301140E-02
      8658 MEMB     70       PMPE     H10X     HAL2     0.900000E-01   1.00800           0   0.00000     -0.301140E-02
      8659 MEMB     70       PMPE     H10Y     HAL2     0.900000E-01   1.00800           0   0.00000     -0.301140E-02
      8660 MEMB     70       PMPE     C311     CTL2    -0.180000       12.0110           0   0.00000     -0.301140E-02
      8661 MEMB     70       PMPE     H11X     HAL2     0.900000E-01   1.00800           0   0.00000     -0.301140E-02
      8662 MEMB     70       PMPE     H11Y     HAL2     0.900000E-01   1.00800           0   0.00000     -0.301140E-02
      8663 MEMB     70       PMPE     C312     CTL2    -0.180000       12.0110           0   0.00000     -0.301140E-02
      8664 MEMB     70       PMPE     H12X     HAL2     0.900000E-01   1.00800           0   0.00000     -0.301140E-02
      8665 MEMB     70       PMPE     H12Y     HAL2     0.900000E-01   1.00800           0   0.00000     -0.301140E-02
      8666 MEMB     70       PMPE     C313     CTL2    -0.180000       12.0110           0   0.00000     -0.301140E-02
      8667 MEMB     70       PMPE     H13X     HAL2     0.900000E-01   1.00800           0   0.00000     -0.301140E-02
      8668 MEMB     70       PMPE     H13Y     HAL2     0.900000E-01   1.00800           0   0.00000     -0.301140E-02
      8669 MEMB     70       PMPE     C314     CTL2    -0.180000       12.0110           0   0.00000     -0.301140E-02
      8670 MEMB     70       PMPE     H14X     HAL2     0.900000E-01   1.00800           0   0.00000     -0.301140E-02
      8671 MEMB     70       PMPE     H14Y     HAL2     0.900000E-01   1.00800           0   0.00000     -0.301140E-02
      8672 MEMB     70       PMPE     C315     CTL2    -0.180000       12.0110           0   0.00000     -0.301140E-02
      8673 MEMB     70       PMPE     H15X     HAL2     0.900000E-01   1.00800           0   0.00000     -0.301140E-02
      8674 MEMB     70       PMPE     H15Y     HAL2     0.900000E-01   1.00800           0   0.00000     -0.301140E-02
      8675 MEMB     70       PMPE     C316     CTL3    -0.270000       12.0110           0   0.00000     -0.301140E-02
      8676 MEMB     70       PMPE     H16X     HAL3     0.900000E-01   1.00800           0   0.00000     -0.301140E-02
      8677 MEMB     70       PMPE     H16Y     HAL3     0.900000E-01   1.00800           0   0.00000     -0.301140E-02
      8678 MEMB     70       PMPE     H16Z     HAL3     0.900000E-01   1.00800           0   0.00000     -0.301140E-02
      8679 MEMB     71       PMPE     N        NH3L    -0.300000       14.0070           0   0.00000     -0.301140E-02
      8680 MEMB     71       PMPE     HN1      HCL      0.330000       1.00800           0   0.00000     -0.301140E-02
      8681 MEMB     71       PMPE     HN2      HCL      0.330000       1.00800           0   0.00000     -0.301140E-02
      8682 MEMB     71       PMPE     HN3      HCL      0.330000       1.00800           0   0.00000     -0.301140E-02
      8683 MEMB     71       PMPE     C12      CTL2     0.130000       12.0110           0   0.00000     -0.301140E-02
      8684 MEMB     71       PMPE     H12A     HAL2     0.900000E-01   1.00800           0   0.00000     -0.301140E-02
      8685 MEMB     71       PMPE     H12B     HAL2     0.900000E-01   1.00800           0   0.00000     -0.301140E-02
      8686 MEMB     71       PMPE     C11      CTL2    -0.800000E-01   12.0110           0   0.00000     -0.301140E-02
      8687 MEMB     71       PMPE     H11A     HAL2     0.900000E-01   1.00800           0   0.00000     -0.301140E-02
      8688 MEMB     71       PMPE     H11B     HAL2     0.900000E-01   1.00800           0   0.00000     -0.301140E-02
      8689 MEMB     71       PMPE     P        PL        1.50000       30.9740           0   0.00000     -0.301140E-02
      8690 MEMB     71       PMPE     O13      O2L     -0.780000       15.9994           0   0.00000     -0.301140E-02
      8691 MEMB     71       PMPE     O14      O2L     -0.780000       15.9994           0   0.00000     -0.301140E-02
      8692 MEMB     71       PMPE     O11      OSLP    -0.570000       15.9994           0   0.00000     -0.301140E-02
      8693 MEMB     71       PMPE     O12      OSLP    -0.570000       15.9994           0   0.00000     -0.301140E-02
      8694 MEMB     71       PMPE     C1       CTL2    -0.800000E-01   12.0110           0   0.00000     -0.301140E-02
      8695 MEMB     71       PMPE     HA       HAL2     0.900000E-01   1.00800           0   0.00000     -0.301140E-02
      8696 MEMB     71       PMPE     HB       HAL2     0.900000E-01   1.00800           0   0.00000     -0.301140E-02
      8697 MEMB     71       PMPE     C2       CTL1     0.170000       12.0110           0   0.00000     -0.301140E-02
      8698 MEMB     71       PMPE     HS       HAL1     0.900000E-01   1.00800           0   0.00000     -0.301140E-02
      8699 MEMB     71       PMPE     O21      OSL     -0.490000       15.9994           0   0.00000     -0.301140E-02
      8700 MEMB     71       PMPE     C21      CL       0.900000       12.0110           0   0.00000     -0.301140E-02
      8701 MEMB     71       PMPE     O22      OBL     -0.630000       15.9994           0   0.00000     -0.301140E-02
      8702 MEMB     71       PMPE     C22      CTL2    -0.220000       12.0110           0   0.00000     -0.301140E-02
      8703 MEMB     71       PMPE     H2R      HAL2     0.900000E-01   1.00800           0   0.00000     -0.301140E-02
      8704 MEMB     71       PMPE     H2S      HAL2     0.900000E-01   1.00800           0   0.00000     -0.301140E-02
      8705 MEMB     71       PMPE     C3       CTL2     0.800000E-01   12.0110           0   0.00000     -0.301140E-02
      8706 MEMB     71       PMPE     HX       HAL2     0.900000E-01   1.00800           0   0.00000     -0.301140E-02
      8707 MEMB     71       PMPE     HY       HAL2     0.900000E-01   1.00800           0   0.00000     -0.301140E-02
      8708 MEMB     71       PMPE     O31      OSL     -0.490000       15.9994           0   0.00000     -0.301140E-02
      8709 MEMB     71       PMPE     C31      CL       0.900000       12.0110           0   0.00000     -0.301140E-02
      8710 MEMB     71       PMPE     O32      OBL     -0.630000       15.9994           0   0.00000     -0.301140E-02
      8711 MEMB     71       PMPE     C32      CTL2    -0.220000       12.0110           0   0.00000     -0.301140E-02
      8712 MEMB     71       PMPE     H2X      HAL2     0.900000E-01   1.00800           0   0.00000     -0.301140E-02
      8713 MEMB     71       PMPE     H2Y      HAL2     0.900000E-01   1.00800           0   0.00000     -0.301140E-02
      8714 MEMB     71       PMPE     C23      CTL2    -0.180000       12.0110           0   0.00000     -0.301140E-02
      8715 MEMB     71       PMPE     H3R      HAL2     0.900000E-01   1.00800           0   0.00000     -0.301140E-02
      8716 MEMB     71       PMPE     H3S      HAL2     0.900000E-01   1.00800           0   0.00000     -0.301140E-02
      8717 MEMB     71       PMPE     C24      CTL2    -0.180000       12.0110           0   0.00000     -0.301140E-02
      8718 MEMB     71       PMPE     H4R      HAL2     0.900000E-01   1.00800           0   0.00000     -0.301140E-02
      8719 MEMB     71       PMPE     H4S      HAL2     0.900000E-01   1.00800           0   0.00000     -0.301140E-02
      8720 MEMB     71       PMPE     C25      CTL2    -0.180000       12.0110           0   0.00000     -0.301140E-02
      8721 MEMB     71       PMPE     H5R      HAL2     0.900000E-01   1.00800           0   0.00000     -0.301140E-02
      8722 MEMB     71       PMPE     H5S      HAL2     0.900000E-01   1.00800           0   0.00000     -0.301140E-02
      8723 MEMB     71       PMPE     C26      CTL2    -0.180000       12.0110           0   0.00000     -0.301140E-02
      8724 MEMB     71       PMPE     H6R      HAL2     0.900000E-01   1.00800           0   0.00000     -0.301140E-02
      8725 MEMB     71       PMPE     H6S      HAL2     0.900000E-01   1.00800           0   0.00000     -0.301140E-02
      8726 MEMB     71       PMPE     C27      CTL2    -0.180000       12.0110           0   0.00000     -0.301140E-02
      8727 MEMB     71       PMPE     H7R      HAL2     0.900000E-01   1.00800           0   0.00000     -0.301140E-02
      8728 MEMB     71       PMPE     H7S      HAL2     0.900000E-01   1.00800           0   0.00000     -0.301140E-02
      8729 MEMB     71       PMPE     C28      CTL2    -0.180000       12.0110           0   0.00000     -0.301140E-02
      8730 MEMB     71       PMPE     H8R      HAL2     0.900000E-01   1.00800           0   0.00000     -0.301140E-02
      8731 MEMB     71       PMPE     H8S      HAL2     0.900000E-01   1.00800           0   0.00000     -0.301140E-02
      8732 MEMB     71       PMPE     C29      CG3RC1  -0.900000E-01   12.0110           0   0.00000     -0.301140E-02
      8733 MEMB     71       PMPE     H9R      HGA1     0.900000E-01   1.00800           0   0.00000     -0.301140E-02
      8734 MEMB     71       PMPE     C217     CG3C31  -0.180000       12.0110           0   0.00000     -0.301140E-02
      8735 MEMB     71       PMPE     H17R     HGA2     0.900000E-01   1.00800           0   0.00000     -0.301140E-02
      8736 MEMB     71       PMPE     H17S     HGA2     0.900000E-01   1.00800           0   0.00000     -0.301140E-02
      8737 MEMB     71       PMPE     C210     CG3RC1  -0.900000E-01   12.0110           0   0.00000     -0.301140E-02
      8738 MEMB     71       PMPE     H10R     HGA1     0.900000E-01   1.00800           0   0.00000     -0.301140E-02
      8739 MEMB     71       PMPE     C211     CTL2    -0.180000       12.0110           0   0.00000     -0.301140E-02
      8740 MEMB     71       PMPE     H11R     HAL2     0.900000E-01   1.00800           0   0.00000     -0.301140E-02
      8741 MEMB     71       PMPE     H11S     HAL2     0.900000E-01   1.00800           0   0.00000     -0.301140E-02
      8742 MEMB     71       PMPE     C212     CTL2    -0.180000       12.0110           0   0.00000     -0.301140E-02
      8743 MEMB     71       PMPE     H12R     HAL2     0.900000E-01   1.00800           0   0.00000     -0.301140E-02
      8744 MEMB     71       PMPE     H12S     HAL2     0.900000E-01   1.00800           0   0.00000     -0.301140E-02
      8745 MEMB     71       PMPE     C213     CTL2    -0.180000       12.0110           0   0.00000     -0.301140E-02
      8746 MEMB     71       PMPE     H13R     HAL2     0.900000E-01   1.00800           0   0.00000     -0.301140E-02
      8747 MEMB     71       PMPE     H13S     HAL2     0.900000E-01   1.00800           0   0.00000     -0.301140E-02
      8748 MEMB     71       PMPE     C214     CTL2    -0.180000       12.0110           0   0.00000     -0.301140E-02
      8749 MEMB     71       PMPE     H14R     HAL2     0.900000E-01   1.00800           0   0.00000     -0.301140E-02
      8750 MEMB     71       PMPE     H14S     HAL2     0.900000E-01   1.00800           0   0.00000     -0.301140E-02
      8751 MEMB     71       PMPE     C215     CTL2    -0.180000       12.0110           0   0.00000     -0.301140E-02
      8752 MEMB     71       PMPE     H15R     HAL2     0.900000E-01   1.00800           0   0.00000     -0.301140E-02
      8753 MEMB     71       PMPE     H15S     HAL2     0.900000E-01   1.00800           0   0.00000     -0.301140E-02
      8754 MEMB     71       PMPE     C216     CTL3    -0.270000       12.0110           0   0.00000     -0.301140E-02
      8755 MEMB     71       PMPE     H16R     HAL3     0.900000E-01   1.00800           0   0.00000     -0.301140E-02
      8756 MEMB     71       PMPE     H16S     HAL3     0.900000E-01   1.00800           0   0.00000     -0.301140E-02
      8757 MEMB     71       PMPE     H16T     HAL3     0.900000E-01   1.00800           0   0.00000     -0.301140E-02
      8758 MEMB     71       PMPE     C33      CTL2    -0.180000       12.0110           0   0.00000     -0.301140E-02
      8759 MEMB     71       PMPE     H3X      HAL2     0.900000E-01   1.00800           0   0.00000     -0.301140E-02
      8760 MEMB     71       PMPE     H3Y      HAL2     0.900000E-01   1.00800           0   0.00000     -0.301140E-02
      8761 MEMB     71       PMPE     C34      CTL2    -0.180000       12.0110           0   0.00000     -0.301140E-02
      8762 MEMB     71       PMPE     H4X      HAL2     0.900000E-01   1.00800           0   0.00000     -0.301140E-02
      8763 MEMB     71       PMPE     H4Y      HAL2     0.900000E-01   1.00800           0   0.00000     -0.301140E-02
      8764 MEMB     71       PMPE     C35      CTL2    -0.180000       12.0110           0   0.00000     -0.301140E-02
      8765 MEMB     71       PMPE     H5X      HAL2     0.900000E-01   1.00800           0   0.00000     -0.301140E-02
      8766 MEMB     71       PMPE     H5Y      HAL2     0.900000E-01   1.00800           0   0.00000     -0.301140E-02
      8767 MEMB     71       PMPE     C36      CTL2    -0.180000       12.0110           0   0.00000     -0.301140E-02
      8768 MEMB     71       PMPE     H6X      HAL2     0.900000E-01   1.00800           0   0.00000     -0.301140E-02
      8769 MEMB     71       PMPE     H6Y      HAL2     0.900000E-01   1.00800           0   0.00000     -0.301140E-02
      8770 MEMB     71       PMPE     C37      CTL2    -0.180000       12.0110           0   0.00000     -0.301140E-02
      8771 MEMB     71       PMPE     H7X      HAL2     0.900000E-01   1.00800           0   0.00000     -0.301140E-02
      8772 MEMB     71       PMPE     H7Y      HAL2     0.900000E-01   1.00800           0   0.00000     -0.301140E-02
      8773 MEMB     71       PMPE     C38      CTL2    -0.180000       12.0110           0   0.00000     -0.301140E-02
      8774 MEMB     71       PMPE     H8X      HAL2     0.900000E-01   1.00800           0   0.00000     -0.301140E-02
      8775 MEMB     71       PMPE     H8Y      HAL2     0.900000E-01   1.00800           0   0.00000     -0.301140E-02
      8776 MEMB     71       PMPE     C39      CTL2    -0.180000       12.0110           0   0.00000     -0.301140E-02
      8777 MEMB     71       PMPE     H9X      HAL2     0.900000E-01   1.00800           0   0.00000     -0.301140E-02
      8778 MEMB     71       PMPE     H9Y      HAL2     0.900000E-01   1.00800           0   0.00000     -0.301140E-02
      8779 MEMB     71       PMPE     C310     CTL2    -0.180000       12.0110           0   0.00000     -0.301140E-02
      8780 MEMB     71       PMPE     H10X     HAL2     0.900000E-01   1.00800           0   0.00000     -0.301140E-02
      8781 MEMB     71       PMPE     H10Y     HAL2     0.900000E-01   1.00800           0   0.00000     -0.301140E-02
      8782 MEMB     71       PMPE     C311     CTL2    -0.180000       12.0110           0   0.00000     -0.301140E-02
      8783 MEMB     71       PMPE     H11X     HAL2     0.900000E-01   1.00800           0   0.00000     -0.301140E-02
      8784 MEMB     71       PMPE     H11Y     HAL2     0.900000E-01   1.00800           0   0.00000     -0.301140E-02
      8785 MEMB     71       PMPE     C312     CTL2    -0.180000       12.0110           0   0.00000     -0.301140E-02
      8786 MEMB     71       PMPE     H12X     HAL2     0.900000E-01   1.00800           0   0.00000     -0.301140E-02
      8787 MEMB     71       PMPE     H12Y     HAL2     0.900000E-01   1.00800           0   0.00000     -0.301140E-02
      8788 MEMB     71       PMPE     C313     CTL2    -0.180000       12.0110           0   0.00000     -0.301140E-02
      8789 MEMB     71       PMPE     H13X     HAL2     0.900000E-01   1.00800           0   0.00000     -0.301140E-02
      8790 MEMB     71       PMPE     H13Y     HAL2     0.900000E-01   1.00800           0   0.00000     -0.301140E-02
      8791 MEMB     71       PMPE     C314     CTL2    -0.180000       12.0110           0   0.00000     -0.301140E-02
      8792 MEMB     71       PMPE     H14X     HAL2     0.900000E-01   1.00800           0   0.00000     -0.301140E-02
      8793 MEMB     71       PMPE     H14Y     HAL2     0.900000E-01   1.00800           0   0.00000     -0.301140E-02
      8794 MEMB     71       PMPE     C315     CTL2    -0.180000       12.0110           0   0.00000     -0.301140E-02
      8795 MEMB     71       PMPE     H15X     HAL2     0.900000E-01   1.00800           0   0.00000     -0.301140E-02
      8796 MEMB     71       PMPE     H15Y     HAL2     0.900000E-01   1.00800           0   0.00000     -0.301140E-02
      8797 MEMB     71       PMPE     C316     CTL3    -0.270000       12.0110           0   0.00000     -0.301140E-02
      8798 MEMB     71       PMPE     H16X     HAL3     0.900000E-01   1.00800           0   0.00000     -0.301140E-02
      8799 MEMB     71       PMPE     H16Y     HAL3     0.900000E-01   1.00800           0   0.00000     -0.301140E-02
      8800 MEMB     71       PMPE     H16Z     HAL3     0.900000E-01   1.00800           0   0.00000     -0.301140E-02
      8801 MEMB     72       PMPE     N        NH3L    -0.300000       14.0070           0   0.00000     -0.301140E-02
      8802 MEMB     72       PMPE     HN1      HCL      0.330000       1.00800           0   0.00000     -0.301140E-02
      8803 MEMB     72       PMPE     HN2      HCL      0.330000       1.00800           0   0.00000     -0.301140E-02
      8804 MEMB     72       PMPE     HN3      HCL      0.330000       1.00800           0   0.00000     -0.301140E-02
      8805 MEMB     72       PMPE     C12      CTL2     0.130000       12.0110           0   0.00000     -0.301140E-02
      8806 MEMB     72       PMPE     H12A     HAL2     0.900000E-01   1.00800           0   0.00000     -0.301140E-02
      8807 MEMB     72       PMPE     H12B     HAL2     0.900000E-01   1.00800           0   0.00000     -0.301140E-02
      8808 MEMB     72       PMPE     C11      CTL2    -0.800000E-01   12.0110           0   0.00000     -0.301140E-02
      8809 MEMB     72       PMPE     H11A     HAL2     0.900000E-01   1.00800           0   0.00000     -0.301140E-02
      8810 MEMB     72       PMPE     H11B     HAL2     0.900000E-01   1.00800           0   0.00000     -0.301140E-02
      8811 MEMB     72       PMPE     P        PL        1.50000       30.9740           0   0.00000     -0.301140E-02
      8812 MEMB     72       PMPE     O13      O2L     -0.780000       15.9994           0   0.00000     -0.301140E-02
      8813 MEMB     72       PMPE     O14      O2L     -0.780000       15.9994           0   0.00000     -0.301140E-02
      8814 MEMB     72       PMPE     O11      OSLP    -0.570000       15.9994           0   0.00000     -0.301140E-02
      8815 MEMB     72       PMPE     O12      OSLP    -0.570000       15.9994           0   0.00000     -0.301140E-02
      8816 MEMB     72       PMPE     C1       CTL2    -0.800000E-01   12.0110           0   0.00000     -0.301140E-02
      8817 MEMB     72       PMPE     HA       HAL2     0.900000E-01   1.00800           0   0.00000     -0.301140E-02
      8818 MEMB     72       PMPE     HB       HAL2     0.900000E-01   1.00800           0   0.00000     -0.301140E-02
      8819 MEMB     72       PMPE     C2       CTL1     0.170000       12.0110           0   0.00000     -0.301140E-02
      8820 MEMB     72       PMPE     HS       HAL1     0.900000E-01   1.00800           0   0.00000     -0.301140E-02
      8821 MEMB     72       PMPE     O21      OSL     -0.490000       15.9994           0   0.00000     -0.301140E-02
      8822 MEMB     72       PMPE     C21      CL       0.900000       12.0110           0   0.00000     -0.301140E-02
      8823 MEMB     72       PMPE     O22      OBL     -0.630000       15.9994           0   0.00000     -0.301140E-02
      8824 MEMB     72       PMPE     C22      CTL2    -0.220000       12.0110           0   0.00000     -0.301140E-02
      8825 MEMB     72       PMPE     H2R      HAL2     0.900000E-01   1.00800           0   0.00000     -0.301140E-02
      8826 MEMB     72       PMPE     H2S      HAL2     0.900000E-01   1.00800           0   0.00000     -0.301140E-02
      8827 MEMB     72       PMPE     C3       CTL2     0.800000E-01   12.0110           0   0.00000     -0.301140E-02
      8828 MEMB     72       PMPE     HX       HAL2     0.900000E-01   1.00800           0   0.00000     -0.301140E-02
      8829 MEMB     72       PMPE     HY       HAL2     0.900000E-01   1.00800           0   0.00000     -0.301140E-02
      8830 MEMB     72       PMPE     O31      OSL     -0.490000       15.9994           0   0.00000     -0.301140E-02
      8831 MEMB     72       PMPE     C31      CL       0.900000       12.0110           0   0.00000     -0.301140E-02
      8832 MEMB     72       PMPE     O32      OBL     -0.630000       15.9994           0   0.00000     -0.301140E-02
      8833 MEMB     72       PMPE     C32      CTL2    -0.220000       12.0110           0   0.00000     -0.301140E-02
      8834 MEMB     72       PMPE     H2X      HAL2     0.900000E-01   1.00800           0   0.00000     -0.301140E-02
      8835 MEMB     72       PMPE     H2Y      HAL2     0.900000E-01   1.00800           0   0.00000     -0.301140E-02
      8836 MEMB     72       PMPE     C23      CTL2    -0.180000       12.0110           0   0.00000     -0.301140E-02
      8837 MEMB     72       PMPE     H3R      HAL2     0.900000E-01   1.00800           0   0.00000     -0.301140E-02
      8838 MEMB     72       PMPE     H3S      HAL2     0.900000E-01   1.00800           0   0.00000     -0.301140E-02
      8839 MEMB     72       PMPE     C24      CTL2    -0.180000       12.0110           0   0.00000     -0.301140E-02
      8840 MEMB     72       PMPE     H4R      HAL2     0.900000E-01   1.00800           0   0.00000     -0.301140E-02
      8841 MEMB     72       PMPE     H4S      HAL2     0.900000E-01   1.00800           0   0.00000     -0.301140E-02
      8842 MEMB     72       PMPE     C25      CTL2    -0.180000       12.0110           0   0.00000     -0.301140E-02
      8843 MEMB     72       PMPE     H5R      HAL2     0.900000E-01   1.00800           0   0.00000     -0.301140E-02
      8844 MEMB     72       PMPE     H5S      HAL2     0.900000E-01   1.00800           0   0.00000     -0.301140E-02
      8845 MEMB     72       PMPE     C26      CTL2    -0.180000       12.0110           0   0.00000     -0.301140E-02
      8846 MEMB     72       PMPE     H6R      HAL2     0.900000E-01   1.00800           0   0.00000     -0.301140E-02
      8847 MEMB     72       PMPE     H6S      HAL2     0.900000E-01   1.00800           0   0.00000     -0.301140E-02
      8848 MEMB     72       PMPE     C27      CTL2    -0.180000       12.0110           0   0.00000     -0.301140E-02
      8849 MEMB     72       PMPE     H7R      HAL2     0.900000E-01   1.00800           0   0.00000     -0.301140E-02
      8850 MEMB     72       PMPE     H7S      HAL2     0.900000E-01   1.00800           0   0.00000     -0.301140E-02
      8851 MEMB     72       PMPE     C28      CTL2    -0.180000       12.0110           0   0.00000     -0.301140E-02
      8852 MEMB     72       PMPE     H8R      HAL2     0.900000E-01   1.00800           0   0.00000     -0.301140E-02
      8853 MEMB     72       PMPE     H8S      HAL2     0.900000E-01   1.00800           0   0.00000     -0.301140E-02
      8854 MEMB     72       PMPE     C29      CG3RC1  -0.900000E-01   12.0110           0   0.00000     -0.301140E-02
      8855 MEMB     72       PMPE     H9R      HGA1     0.900000E-01   1.00800           0   0.00000     -0.301140E-02
      8856 MEMB     72       PMPE     C217     CG3C31  -0.180000       12.0110           0   0.00000     -0.301140E-02
      8857 MEMB     72       PMPE     H17R     HGA2     0.900000E-01   1.00800           0   0.00000     -0.301140E-02
      8858 MEMB     72       PMPE     H17S     HGA2     0.900000E-01   1.00800           0   0.00000     -0.301140E-02
      8859 MEMB     72       PMPE     C210     CG3RC1  -0.900000E-01   12.0110           0   0.00000     -0.301140E-02
      8860 MEMB     72       PMPE     H10R     HGA1     0.900000E-01   1.00800           0   0.00000     -0.301140E-02
      8861 MEMB     72       PMPE     C211     CTL2    -0.180000       12.0110           0   0.00000     -0.301140E-02
      8862 MEMB     72       PMPE     H11R     HAL2     0.900000E-01   1.00800           0   0.00000     -0.301140E-02
      8863 MEMB     72       PMPE     H11S     HAL2     0.900000E-01   1.00800           0   0.00000     -0.301140E-02
      8864 MEMB     72       PMPE     C212     CTL2    -0.180000       12.0110           0   0.00000     -0.301140E-02
      8865 MEMB     72       PMPE     H12R     HAL2     0.900000E-01   1.00800           0   0.00000     -0.301140E-02
      8866 MEMB     72       PMPE     H12S     HAL2     0.900000E-01   1.00800           0   0.00000     -0.301140E-02
      8867 MEMB     72       PMPE     C213     CTL2    -0.180000       12.0110           0   0.00000     -0.301140E-02
      8868 MEMB     72       PMPE     H13R     HAL2     0.900000E-01   1.00800           0   0.00000     -0.301140E-02
      8869 MEMB     72       PMPE     H13S     HAL2     0.900000E-01   1.00800           0   0.00000     -0.301140E-02
      8870 MEMB     72       PMPE     C214     CTL2    -0.180000       12.0110           0   0.00000     -0.301140E-02
      8871 MEMB     72       PMPE     H14R     HAL2     0.900000E-01   1.00800           0   0.00000     -0.301140E-02
      8872 MEMB     72       PMPE     H14S     HAL2     0.900000E-01   1.00800           0   0.00000     -0.301140E-02
      8873 MEMB     72       PMPE     C215     CTL2    -0.180000       12.0110           0   0.00000     -0.301140E-02
      8874 MEMB     72       PMPE     H15R     HAL2     0.900000E-01   1.00800           0   0.00000     -0.301140E-02
      8875 MEMB     72       PMPE     H15S     HAL2     0.900000E-01   1.00800           0   0.00000     -0.301140E-02
      8876 MEMB     72       PMPE     C216     CTL3    -0.270000       12.0110           0   0.00000     -0.301140E-02
      8877 MEMB     72       PMPE     H16R     HAL3     0.900000E-01   1.00800           0   0.00000     -0.301140E-02
      8878 MEMB     72       PMPE     H16S     HAL3     0.900000E-01   1.00800           0   0.00000     -0.301140E-02
      8879 MEMB     72       PMPE     H16T     HAL3     0.900000E-01   1.00800           0   0.00000     -0.301140E-02
      8880 MEMB     72       PMPE     C33      CTL2    -0.180000       12.0110           0   0.00000     -0.301140E-02
      8881 MEMB     72       PMPE     H3X      HAL2     0.900000E-01   1.00800           0   0.00000     -0.301140E-02
      8882 MEMB     72       PMPE     H3Y      HAL2     0.900000E-01   1.00800           0   0.00000     -0.301140E-02
      8883 MEMB     72       PMPE     C34      CTL2    -0.180000       12.0110           0   0.00000     -0.301140E-02
      8884 MEMB     72       PMPE     H4X      HAL2     0.900000E-01   1.00800           0   0.00000     -0.301140E-02
      8885 MEMB     72       PMPE     H4Y      HAL2     0.900000E-01   1.00800           0   0.00000     -0.301140E-02
      8886 MEMB     72       PMPE     C35      CTL2    -0.180000       12.0110           0   0.00000     -0.301140E-02
      8887 MEMB     72       PMPE     H5X      HAL2     0.900000E-01   1.00800           0   0.00000     -0.301140E-02
      8888 MEMB     72       PMPE     H5Y      HAL2     0.900000E-01   1.00800           0   0.00000     -0.301140E-02
      8889 MEMB     72       PMPE     C36      CTL2    -0.180000       12.0110           0   0.00000     -0.301140E-02
      8890 MEMB     72       PMPE     H6X      HAL2     0.900000E-01   1.00800           0   0.00000     -0.301140E-02
      8891 MEMB     72       PMPE     H6Y      HAL2     0.900000E-01   1.00800           0   0.00000     -0.301140E-02
      8892 MEMB     72       PMPE     C37      CTL2    -0.180000       12.0110           0   0.00000     -0.301140E-02
      8893 MEMB     72       PMPE     H7X      HAL2     0.900000E-01   1.00800           0   0.00000     -0.301140E-02
      8894 MEMB     72       PMPE     H7Y      HAL2     0.900000E-01   1.00800           0   0.00000     -0.301140E-02
      8895 MEMB     72       PMPE     C38      CTL2    -0.180000       12.0110           0   0.00000     -0.301140E-02
      8896 MEMB     72       PMPE     H8X      HAL2     0.900000E-01   1.00800           0   0.00000     -0.301140E-02
      8897 MEMB     72       PMPE     H8Y      HAL2     0.900000E-01   1.00800           0   0.00000     -0.301140E-02
      8898 MEMB     72       PMPE     C39      CTL2    -0.180000       12.0110           0   0.00000     -0.301140E-02
      8899 MEMB     72       PMPE     H9X      HAL2     0.900000E-01   1.00800           0   0.00000     -0.301140E-02
      8900 MEMB     72       PMPE     H9Y      HAL2     0.900000E-01   1.00800           0   0.00000     -0.301140E-02
      8901 MEMB     72       PMPE     C310     CTL2    -0.180000       12.0110           0   0.00000     -0.301140E-02
      8902 MEMB     72       PMPE     H10X     HAL2     0.900000E-01   1.00800           0   0.00000     -0.301140E-02
      8903 MEMB     72       PMPE     H10Y     HAL2     0.900000E-01   1.00800           0   0.00000     -0.301140E-02
      8904 MEMB     72       PMPE     C311     CTL2    -0.180000       12.0110           0   0.00000     -0.301140E-02
      8905 MEMB     72       PMPE     H11X     HAL2     0.900000E-01   1.00800           0   0.00000     -0.301140E-02
      8906 MEMB     72       PMPE     H11Y     HAL2     0.900000E-01   1.00800           0   0.00000     -0.301140E-02
      8907 MEMB     72       PMPE     C312     CTL2    -0.180000       12.0110           0   0.00000     -0.301140E-02
      8908 MEMB     72       PMPE     H12X     HAL2     0.900000E-01   1.00800           0   0.00000     -0.301140E-02
      8909 MEMB     72       PMPE     H12Y     HAL2     0.900000E-01   1.00800           0   0.00000     -0.301140E-02
      8910 MEMB     72       PMPE     C313     CTL2    -0.180000       12.0110           0   0.00000     -0.301140E-02
      8911 MEMB     72       PMPE     H13X     HAL2     0.900000E-01   1.00800           0   0.00000     -0.301140E-02
      8912 MEMB     72       PMPE     H13Y     HAL2     0.900000E-01   1.00800           0   0.00000     -0.301140E-02
      8913 MEMB     72       PMPE     C314     CTL2    -0.180000       12.0110           0   0.00000     -0.301140E-02
      8914 MEMB     72       PMPE     H14X     HAL2     0.900000E-01   1.00800           0   0.00000     -0.301140E-02
      8915 MEMB     72       PMPE     H14Y     HAL2     0.900000E-01   1.00800           0   0.00000     -0.301140E-02
      8916 MEMB     72       PMPE     C315     CTL2    -0.180000       12.0110           0   0.00000     -0.301140E-02
      8917 MEMB     72       PMPE     H15X     HAL2     0.900000E-01   1.00800           0   0.00000     -0.301140E-02
      8918 MEMB     72       PMPE     H15Y     HAL2     0.900000E-01   1.00800           0   0.00000     -0.301140E-02
      8919 MEMB     72       PMPE     C316     CTL3    -0.270000       12.0110           0   0.00000     -0.301140E-02
      8920 MEMB     72       PMPE     H16X     HAL3     0.900000E-01   1.00800           0   0.00000     -0.301140E-02
      8921 MEMB     72       PMPE     H16Y     HAL3     0.900000E-01   1.00800           0   0.00000     -0.301140E-02
      8922 MEMB     72       PMPE     H16Z     HAL3     0.900000E-01   1.00800           0   0.00000     -0.301140E-02
      8923 MEMB     73       PMPE     N        NH3L    -0.300000       14.0070           0   0.00000     -0.301140E-02
      8924 MEMB     73       PMPE     HN1      HCL      0.330000       1.00800           0   0.00000     -0.301140E-02
      8925 MEMB     73       PMPE     HN2      HCL      0.330000       1.00800           0   0.00000     -0.301140E-02
      8926 MEMB     73       PMPE     HN3      HCL      0.330000       1.00800           0   0.00000     -0.301140E-02
      8927 MEMB     73       PMPE     C12      CTL2     0.130000       12.0110           0   0.00000     -0.301140E-02
      8928 MEMB     73       PMPE     H12A     HAL2     0.900000E-01   1.00800           0   0.00000     -0.301140E-02
      8929 MEMB     73       PMPE     H12B     HAL2     0.900000E-01   1.00800           0   0.00000     -0.301140E-02
      8930 MEMB     73       PMPE     C11      CTL2    -0.800000E-01   12.0110           0   0.00000     -0.301140E-02
      8931 MEMB     73       PMPE     H11A     HAL2     0.900000E-01   1.00800           0   0.00000     -0.301140E-02
      8932 MEMB     73       PMPE     H11B     HAL2     0.900000E-01   1.00800           0   0.00000     -0.301140E-02
      8933 MEMB     73       PMPE     P        PL        1.50000       30.9740           0   0.00000     -0.301140E-02
      8934 MEMB     73       PMPE     O13      O2L     -0.780000       15.9994           0   0.00000     -0.301140E-02
      8935 MEMB     73       PMPE     O14      O2L     -0.780000       15.9994           0   0.00000     -0.301140E-02
      8936 MEMB     73       PMPE     O11      OSLP    -0.570000       15.9994           0   0.00000     -0.301140E-02
      8937 MEMB     73       PMPE     O12      OSLP    -0.570000       15.9994           0   0.00000     -0.301140E-02
      8938 MEMB     73       PMPE     C1       CTL2    -0.800000E-01   12.0110           0   0.00000     -0.301140E-02
      8939 MEMB     73       PMPE     HA       HAL2     0.900000E-01   1.00800           0   0.00000     -0.301140E-02
      8940 MEMB     73       PMPE     HB       HAL2     0.900000E-01   1.00800           0   0.00000     -0.301140E-02
      8941 MEMB     73       PMPE     C2       CTL1     0.170000       12.0110           0   0.00000     -0.301140E-02
      8942 MEMB     73       PMPE     HS       HAL1     0.900000E-01   1.00800           0   0.00000     -0.301140E-02
      8943 MEMB     73       PMPE     O21      OSL     -0.490000       15.9994           0   0.00000     -0.301140E-02
      8944 MEMB     73       PMPE     C21      CL       0.900000       12.0110           0   0.00000     -0.301140E-02
      8945 MEMB     73       PMPE     O22      OBL     -0.630000       15.9994           0   0.00000     -0.301140E-02
      8946 MEMB     73       PMPE     C22      CTL2    -0.220000       12.0110           0   0.00000     -0.301140E-02
      8947 MEMB     73       PMPE     H2R      HAL2     0.900000E-01   1.00800           0   0.00000     -0.301140E-02
      8948 MEMB     73       PMPE     H2S      HAL2     0.900000E-01   1.00800           0   0.00000     -0.301140E-02
      8949 MEMB     73       PMPE     C3       CTL2     0.800000E-01   12.0110           0   0.00000     -0.301140E-02
      8950 MEMB     73       PMPE     HX       HAL2     0.900000E-01   1.00800           0   0.00000     -0.301140E-02
      8951 MEMB     73       PMPE     HY       HAL2     0.900000E-01   1.00800           0   0.00000     -0.301140E-02
      8952 MEMB     73       PMPE     O31      OSL     -0.490000       15.9994           0   0.00000     -0.301140E-02
      8953 MEMB     73       PMPE     C31      CL       0.900000       12.0110           0   0.00000     -0.301140E-02
      8954 MEMB     73       PMPE     O32      OBL     -0.630000       15.9994           0   0.00000     -0.301140E-02
      8955 MEMB     73       PMPE     C32      CTL2    -0.220000       12.0110           0   0.00000     -0.301140E-02
      8956 MEMB     73       PMPE     H2X      HAL2     0.900000E-01   1.00800           0   0.00000     -0.301140E-02
      8957 MEMB     73       PMPE     H2Y      HAL2     0.900000E-01   1.00800           0   0.00000     -0.301140E-02
      8958 MEMB     73       PMPE     C23      CTL2    -0.180000       12.0110           0   0.00000     -0.301140E-02
      8959 MEMB     73       PMPE     H3R      HAL2     0.900000E-01   1.00800           0   0.00000     -0.301140E-02
      8960 MEMB     73       PMPE     H3S      HAL2     0.900000E-01   1.00800           0   0.00000     -0.301140E-02
      8961 MEMB     73       PMPE     C24      CTL2    -0.180000       12.0110           0   0.00000     -0.301140E-02
      8962 MEMB     73       PMPE     H4R      HAL2     0.900000E-01   1.00800           0   0.00000     -0.301140E-02
      8963 MEMB     73       PMPE     H4S      HAL2     0.900000E-01   1.00800           0   0.00000     -0.301140E-02
      8964 MEMB     73       PMPE     C25      CTL2    -0.180000       12.0110           0   0.00000     -0.301140E-02
      8965 MEMB     73       PMPE     H5R      HAL2     0.900000E-01   1.00800           0   0.00000     -0.301140E-02
      8966 MEMB     73       PMPE     H5S      HAL2     0.900000E-01   1.00800           0   0.00000     -0.301140E-02
      8967 MEMB     73       PMPE     C26      CTL2    -0.180000       12.0110           0   0.00000     -0.301140E-02
      8968 MEMB     73       PMPE     H6R      HAL2     0.900000E-01   1.00800           0   0.00000     -0.301140E-02
      8969 MEMB     73       PMPE     H6S      HAL2     0.900000E-01   1.00800           0   0.00000     -0.301140E-02
      8970 MEMB     73       PMPE     C27      CTL2    -0.180000       12.0110           0   0.00000     -0.301140E-02
      8971 MEMB     73       PMPE     H7R      HAL2     0.900000E-01   1.00800           0   0.00000     -0.301140E-02
      8972 MEMB     73       PMPE     H7S      HAL2     0.900000E-01   1.00800           0   0.00000     -0.301140E-02
      8973 MEMB     73       PMPE     C28      CTL2    -0.180000       12.0110           0   0.00000     -0.301140E-02
      8974 MEMB     73       PMPE     H8R      HAL2     0.900000E-01   1.00800           0   0.00000     -0.301140E-02
      8975 MEMB     73       PMPE     H8S      HAL2     0.900000E-01   1.00800           0   0.00000     -0.301140E-02
      8976 MEMB     73       PMPE     C29      CG3RC1  -0.900000E-01   12.0110           0   0.00000     -0.301140E-02
      8977 MEMB     73       PMPE     H9R      HGA1     0.900000E-01   1.00800           0   0.00000     -0.301140E-02
      8978 MEMB     73       PMPE     C217     CG3C31  -0.180000       12.0110           0   0.00000     -0.301140E-02
      8979 MEMB     73       PMPE     H17R     HGA2     0.900000E-01   1.00800           0   0.00000     -0.301140E-02
      8980 MEMB     73       PMPE     H17S     HGA2     0.900000E-01   1.00800           0   0.00000     -0.301140E-02
      8981 MEMB     73       PMPE     C210     CG3RC1  -0.900000E-01   12.0110           0   0.00000     -0.301140E-02
      8982 MEMB     73       PMPE     H10R     HGA1     0.900000E-01   1.00800           0   0.00000     -0.301140E-02
      8983 MEMB     73       PMPE     C211     CTL2    -0.180000       12.0110           0   0.00000     -0.301140E-02
      8984 MEMB     73       PMPE     H11R     HAL2     0.900000E-01   1.00800           0   0.00000     -0.301140E-02
      8985 MEMB     73       PMPE     H11S     HAL2     0.900000E-01   1.00800           0   0.00000     -0.301140E-02
      8986 MEMB     73       PMPE     C212     CTL2    -0.180000       12.0110           0   0.00000     -0.301140E-02
      8987 MEMB     73       PMPE     H12R     HAL2     0.900000E-01   1.00800           0   0.00000     -0.301140E-02
      8988 MEMB     73       PMPE     H12S     HAL2     0.900000E-01   1.00800           0   0.00000     -0.301140E-02
      8989 MEMB     73       PMPE     C213     CTL2    -0.180000       12.0110           0   0.00000     -0.301140E-02
      8990 MEMB     73       PMPE     H13R     HAL2     0.900000E-01   1.00800           0   0.00000     -0.301140E-02
      8991 MEMB     73       PMPE     H13S     HAL2     0.900000E-01   1.00800           0   0.00000     -0.301140E-02
      8992 MEMB     73       PMPE     C214     CTL2    -0.180000       12.0110           0   0.00000     -0.301140E-02
      8993 MEMB     73       PMPE     H14R     HAL2     0.900000E-01   1.00800           0   0.00000     -0.301140E-02
      8994 MEMB     73       PMPE     H14S     HAL2     0.900000E-01   1.00800           0   0.00000     -0.301140E-02
      8995 MEMB     73       PMPE     C215     CTL2    -0.180000       12.0110           0   0.00000     -0.301140E-02
      8996 MEMB     73       PMPE     H15R     HAL2     0.900000E-01   1.00800           0   0.00000     -0.301140E-02
      8997 MEMB     73       PMPE     H15S     HAL2     0.900000E-01   1.00800           0   0.00000     -0.301140E-02
      8998 MEMB     73       PMPE     C216     CTL3    -0.270000       12.0110           0   0.00000     -0.301140E-02
      8999 MEMB     73       PMPE     H16R     HAL3     0.900000E-01   1.00800           0   0.00000     -0.301140E-02
      9000 MEMB     73       PMPE     H16S     HAL3     0.900000E-01   1.00800           0   0.00000     -0.301140E-02
      9001 MEMB     73       PMPE     H16T     HAL3     0.900000E-01   1.00800           0   0.00000     -0.301140E-02
      9002 MEMB     73       PMPE     C33      CTL2    -0.180000       12.0110           0   0.00000     -0.301140E-02
      9003 MEMB     73       PMPE     H3X      HAL2     0.900000E-01   1.00800           0   0.00000     -0.301140E-02
      9004 MEMB     73       PMPE     H3Y      HAL2     0.900000E-01   1.00800           0   0.00000     -0.301140E-02
      9005 MEMB     73       PMPE     C34      CTL2    -0.180000       12.0110           0   0.00000     -0.301140E-02
      9006 MEMB     73       PMPE     H4X      HAL2     0.900000E-01   1.00800           0   0.00000     -0.301140E-02
      9007 MEMB     73       PMPE     H4Y      HAL2     0.900000E-01   1.00800           0   0.00000     -0.301140E-02
      9008 MEMB     73       PMPE     C35      CTL2    -0.180000       12.0110           0   0.00000     -0.301140E-02
      9009 MEMB     73       PMPE     H5X      HAL2     0.900000E-01   1.00800           0   0.00000     -0.301140E-02
      9010 MEMB     73       PMPE     H5Y      HAL2     0.900000E-01   1.00800           0   0.00000     -0.301140E-02
      9011 MEMB     73       PMPE     C36      CTL2    -0.180000       12.0110           0   0.00000     -0.301140E-02
      9012 MEMB     73       PMPE     H6X      HAL2     0.900000E-01   1.00800           0   0.00000     -0.301140E-02
      9013 MEMB     73       PMPE     H6Y      HAL2     0.900000E-01   1.00800           0   0.00000     -0.301140E-02
      9014 MEMB     73       PMPE     C37      CTL2    -0.180000       12.0110           0   0.00000     -0.301140E-02
      9015 MEMB     73       PMPE     H7X      HAL2     0.900000E-01   1.00800           0   0.00000     -0.301140E-02
      9016 MEMB     73       PMPE     H7Y      HAL2     0.900000E-01   1.00800           0   0.00000     -0.301140E-02
      9017 MEMB     73       PMPE     C38      CTL2    -0.180000       12.0110           0   0.00000     -0.301140E-02
      9018 MEMB     73       PMPE     H8X      HAL2     0.900000E-01   1.00800           0   0.00000     -0.301140E-02
      9019 MEMB     73       PMPE     H8Y      HAL2     0.900000E-01   1.00800           0   0.00000     -0.301140E-02
      9020 MEMB     73       PMPE     C39      CTL2    -0.180000       12.0110           0   0.00000     -0.301140E-02
      9021 MEMB     73       PMPE     H9X      HAL2     0.900000E-01   1.00800           0   0.00000     -0.301140E-02
      9022 MEMB     73       PMPE     H9Y      HAL2     0.900000E-01   1.00800           0   0.00000     -0.301140E-02
      9023 MEMB     73       PMPE     C310     CTL2    -0.180000       12.0110           0   0.00000     -0.301140E-02
      9024 MEMB     73       PMPE     H10X     HAL2     0.900000E-01   1.00800           0   0.00000     -0.301140E-02
      9025 MEMB     73       PMPE     H10Y     HAL2     0.900000E-01   1.00800           0   0.00000     -0.301140E-02
      9026 MEMB     73       PMPE     C311     CTL2    -0.180000       12.0110           0   0.00000     -0.301140E-02
      9027 MEMB     73       PMPE     H11X     HAL2     0.900000E-01   1.00800           0   0.00000     -0.301140E-02
      9028 MEMB     73       PMPE     H11Y     HAL2     0.900000E-01   1.00800           0   0.00000     -0.301140E-02
      9029 MEMB     73       PMPE     C312     CTL2    -0.180000       12.0110           0   0.00000     -0.301140E-02
      9030 MEMB     73       PMPE     H12X     HAL2     0.900000E-01   1.00800           0   0.00000     -0.301140E-02
      9031 MEMB     73       PMPE     H12Y     HAL2     0.900000E-01   1.00800           0   0.00000     -0.301140E-02
      9032 MEMB     73       PMPE     C313     CTL2    -0.180000       12.0110           0   0.00000     -0.301140E-02
      9033 MEMB     73       PMPE     H13X     HAL2     0.900000E-01   1.00800           0   0.00000     -0.301140E-02
      9034 MEMB     73       PMPE     H13Y     HAL2     0.900000E-01   1.00800           0   0.00000     -0.301140E-02
      9035 MEMB     73       PMPE     C314     CTL2    -0.180000       12.0110           0   0.00000     -0.301140E-02
      9036 MEMB     73       PMPE     H14X     HAL2     0.900000E-01   1.00800           0   0.00000     -0.301140E-02
      9037 MEMB     73       PMPE     H14Y     HAL2     0.900000E-01   1.00800           0   0.00000     -0.301140E-02
      9038 MEMB     73       PMPE     C315     CTL2    -0.180000       12.0110           0   0.00000     -0.301140E-02
      9039 MEMB     73       PMPE     H15X     HAL2     0.900000E-01   1.00800           0   0.00000     -0.301140E-02
      9040 MEMB     73       PMPE     H15Y     HAL2     0.900000E-01   1.00800           0   0.00000     -0.301140E-02
      9041 MEMB     73       PMPE     C316     CTL3    -0.270000       12.0110           0   0.00000     -0.301140E-02
      9042 MEMB     73       PMPE     H16X     HAL3     0.900000E-01   1.00800           0   0.00000     -0.301140E-02
      9043 MEMB     73       PMPE     H16Y     HAL3     0.900000E-01   1.00800           0   0.00000     -0.301140E-02
      9044 MEMB     73       PMPE     H16Z     HAL3     0.900000E-01   1.00800           0   0.00000     -0.301140E-02
      9045 MEMB     74       PYPG     C13      CTL2     0.500000E-01   12.0110           0   0.00000     -0.301140E-02
      9046 MEMB     74       PYPG     H13A     HAL2     0.900000E-01   1.00800           0   0.00000     -0.301140E-02
      9047 MEMB     74       PYPG     H13B     HAL2     0.900000E-01   1.00800           0   0.00000     -0.301140E-02
      9048 MEMB     74       PYPG     OC3      OHL     -0.660000       15.9994           0   0.00000     -0.301140E-02
      9049 MEMB     74       PYPG     HO3      HOL      0.430000       1.00800           0   0.00000     -0.301140E-02
      9050 MEMB     74       PYPG     C12      CTL1     0.140000       12.0110           0   0.00000     -0.301140E-02
      9051 MEMB     74       PYPG     H12A     HAL1     0.900000E-01   1.00800           0   0.00000     -0.301140E-02
      9052 MEMB     74       PYPG     OC2      OHL     -0.660000       15.9994           0   0.00000     -0.301140E-02
      9053 MEMB     74       PYPG     HO2      HOL      0.430000       1.00800           0   0.00000     -0.301140E-02
      9054 MEMB     74       PYPG     C11      CTL2    -0.800000E-01   12.0110           0   0.00000     -0.301140E-02
      9055 MEMB     74       PYPG     H11A     HAL2     0.900000E-01   1.00800           0   0.00000     -0.301140E-02
      9056 MEMB     74       PYPG     H11B     HAL2     0.900000E-01   1.00800           0   0.00000     -0.301140E-02
      9057 MEMB     74       PYPG     P        PL        1.50000       30.9740           0   0.00000     -0.301140E-02
      9058 MEMB     74       PYPG     O13      O2L     -0.780000       15.9994           0   0.00000     -0.301140E-02
      9059 MEMB     74       PYPG     O14      O2L     -0.780000       15.9994           0   0.00000     -0.301140E-02
      9060 MEMB     74       PYPG     O11      OSLP    -0.570000       15.9994           0   0.00000     -0.301140E-02
      9061 MEMB     74       PYPG     O12      OSLP    -0.570000       15.9994           0   0.00000     -0.301140E-02
      9062 MEMB     74       PYPG     C1       CTL2    -0.800000E-01   12.0110           0   0.00000     -0.301140E-02
      9063 MEMB     74       PYPG     HA       HAL2     0.900000E-01   1.00800           0   0.00000     -0.301140E-02
      9064 MEMB     74       PYPG     HB       HAL2     0.900000E-01   1.00800           0   0.00000     -0.301140E-02
      9065 MEMB     74       PYPG     C2       CTL1     0.170000       12.0110           0   0.00000     -0.301140E-02
      9066 MEMB     74       PYPG     HS       HAL1     0.900000E-01   1.00800           0   0.00000     -0.301140E-02
      9067 MEMB     74       PYPG     O21      OSL     -0.490000       15.9994           0   0.00000     -0.301140E-02
      9068 MEMB     74       PYPG     C21      CL       0.900000       12.0110           0   0.00000     -0.301140E-02
      9069 MEMB     74       PYPG     O22      OBL     -0.630000       15.9994           0   0.00000     -0.301140E-02
      9070 MEMB     74       PYPG     C22      CTL2    -0.220000       12.0110           0   0.00000     -0.301140E-02
      9071 MEMB     74       PYPG     H2R      HAL2     0.900000E-01   1.00800           0   0.00000     -0.301140E-02
      9072 MEMB     74       PYPG     H2S      HAL2     0.900000E-01   1.00800           0   0.00000     -0.301140E-02
      9073 MEMB     74       PYPG     C3       CTL2     0.800000E-01   12.0110           0   0.00000     -0.301140E-02
      9074 MEMB     74       PYPG     HX       HAL2     0.900000E-01   1.00800           0   0.00000     -0.301140E-02
      9075 MEMB     74       PYPG     HY       HAL2     0.900000E-01   1.00800           0   0.00000     -0.301140E-02
      9076 MEMB     74       PYPG     O31      OSL     -0.490000       15.9994           0   0.00000     -0.301140E-02
      9077 MEMB     74       PYPG     C31      CL       0.900000       12.0110           0   0.00000     -0.301140E-02
      9078 MEMB     74       PYPG     O32      OBL     -0.630000       15.9994           0   0.00000     -0.301140E-02
      9079 MEMB     74       PYPG     C32      CTL2    -0.220000       12.0110           0   0.00000     -0.301140E-02
      9080 MEMB     74       PYPG     H2X      HAL2     0.900000E-01   1.00800           0   0.00000     -0.301140E-02
      9081 MEMB     74       PYPG     H2Y      HAL2     0.900000E-01   1.00800           0   0.00000     -0.301140E-02
      9082 MEMB     74       PYPG     C23      CTL2    -0.180000       12.0110           0   0.00000     -0.301140E-02
      9083 MEMB     74       PYPG     H3R      HAL2     0.900000E-01   1.00800           0   0.00000     -0.301140E-02
      9084 MEMB     74       PYPG     H3S      HAL2     0.900000E-01   1.00800           0   0.00000     -0.301140E-02
      9085 MEMB     74       PYPG     C24      CTL2    -0.180000       12.0110           0   0.00000     -0.301140E-02
      9086 MEMB     74       PYPG     H4R      HAL2     0.900000E-01   1.00800           0   0.00000     -0.301140E-02
      9087 MEMB     74       PYPG     H4S      HAL2     0.900000E-01   1.00800           0   0.00000     -0.301140E-02
      9088 MEMB     74       PYPG     C25      CTL2    -0.180000       12.0110           0   0.00000     -0.301140E-02
      9089 MEMB     74       PYPG     H5R      HAL2     0.900000E-01   1.00800           0   0.00000     -0.301140E-02
      9090 MEMB     74       PYPG     H5S      HAL2     0.900000E-01   1.00800           0   0.00000     -0.301140E-02
      9091 MEMB     74       PYPG     C26      CTL2    -0.180000       12.0110           0   0.00000     -0.301140E-02
      9092 MEMB     74       PYPG     H6R      HAL2     0.900000E-01   1.00800           0   0.00000     -0.301140E-02
      9093 MEMB     74       PYPG     H6S      HAL2     0.900000E-01   1.00800           0   0.00000     -0.301140E-02
      9094 MEMB     74       PYPG     C27      CTL2    -0.180000       12.0110           0   0.00000     -0.301140E-02
      9095 MEMB     74       PYPG     H7R      HAL2     0.900000E-01   1.00800           0   0.00000     -0.301140E-02
      9096 MEMB     74       PYPG     H7S      HAL2     0.900000E-01   1.00800           0   0.00000     -0.301140E-02
      9097 MEMB     74       PYPG     C28      CTL2    -0.180000       12.0110           0   0.00000     -0.301140E-02
      9098 MEMB     74       PYPG     H8R      HAL2     0.900000E-01   1.00800           0   0.00000     -0.301140E-02
      9099 MEMB     74       PYPG     H8S      HAL2     0.900000E-01   1.00800           0   0.00000     -0.301140E-02
      9100 MEMB     74       PYPG     C29      CEL1    -0.150000       12.0110           0   0.00000     -0.301140E-02
      9101 MEMB     74       PYPG     H9R      HEL1     0.150000       1.00800           0   0.00000     -0.301140E-02
      9102 MEMB     74       PYPG     C210     CEL1    -0.150000       12.0110           0   0.00000     -0.301140E-02
      9103 MEMB     74       PYPG     H10R     HEL1     0.150000       1.00800           0   0.00000     -0.301140E-02
      9104 MEMB     74       PYPG     C211     CTL2    -0.180000       12.0110           0   0.00000     -0.301140E-02
      9105 MEMB     74       PYPG     H11R     HAL2     0.900000E-01   1.00800           0   0.00000     -0.301140E-02
      9106 MEMB     74       PYPG     H11S     HAL2     0.900000E-01   1.00800           0   0.00000     -0.301140E-02
      9107 MEMB     74       PYPG     C212     CTL2    -0.180000       12.0110           0   0.00000     -0.301140E-02
      9108 MEMB     74       PYPG     H12R     HAL2     0.900000E-01   1.00800           0   0.00000     -0.301140E-02
      9109 MEMB     74       PYPG     H12S     HAL2     0.900000E-01   1.00800           0   0.00000     -0.301140E-02
      9110 MEMB     74       PYPG     C213     CTL2    -0.180000       12.0110           0   0.00000     -0.301140E-02
      9111 MEMB     74       PYPG     H13R     HAL2     0.900000E-01   1.00800           0   0.00000     -0.301140E-02
      9112 MEMB     74       PYPG     H13S     HAL2     0.900000E-01   1.00800           0   0.00000     -0.301140E-02
      9113 MEMB     74       PYPG     C214     CTL2    -0.180000       12.0110           0   0.00000     -0.301140E-02
      9114 MEMB     74       PYPG     H14R     HAL2     0.900000E-01   1.00800           0   0.00000     -0.301140E-02
      9115 MEMB     74       PYPG     H14S     HAL2     0.900000E-01   1.00800           0   0.00000     -0.301140E-02
      9116 MEMB     74       PYPG     C215     CTL2    -0.180000       12.0110           0   0.00000     -0.301140E-02
      9117 MEMB     74       PYPG     H15R     HAL2     0.900000E-01   1.00800           0   0.00000     -0.301140E-02
      9118 MEMB     74       PYPG     H15S     HAL2     0.900000E-01   1.00800           0   0.00000     -0.301140E-02
      9119 MEMB     74       PYPG     C216     CTL3    -0.270000       12.0110           0   0.00000     -0.301140E-02
      9120 MEMB     74       PYPG     H16R     HAL3     0.900000E-01   1.00800           0   0.00000     -0.301140E-02
      9121 MEMB     74       PYPG     H16S     HAL3     0.900000E-01   1.00800           0   0.00000     -0.301140E-02
      9122 MEMB     74       PYPG     H16T     HAL3     0.900000E-01   1.00800           0   0.00000     -0.301140E-02
      9123 MEMB     74       PYPG     C33      CTL2    -0.180000       12.0110           0   0.00000     -0.301140E-02
      9124 MEMB     74       PYPG     H3X      HAL2     0.900000E-01   1.00800           0   0.00000     -0.301140E-02
      9125 MEMB     74       PYPG     H3Y      HAL2     0.900000E-01   1.00800           0   0.00000     -0.301140E-02
      9126 MEMB     74       PYPG     C34      CTL2    -0.180000       12.0110           0   0.00000     -0.301140E-02
      9127 MEMB     74       PYPG     H4X      HAL2     0.900000E-01   1.00800           0   0.00000     -0.301140E-02
      9128 MEMB     74       PYPG     H4Y      HAL2     0.900000E-01   1.00800           0   0.00000     -0.301140E-02
      9129 MEMB     74       PYPG     C35      CTL2    -0.180000       12.0110           0   0.00000     -0.301140E-02
      9130 MEMB     74       PYPG     H5X      HAL2     0.900000E-01   1.00800           0   0.00000     -0.301140E-02
      9131 MEMB     74       PYPG     H5Y      HAL2     0.900000E-01   1.00800           0   0.00000     -0.301140E-02
      9132 MEMB     74       PYPG     C36      CTL2    -0.180000       12.0110           0   0.00000     -0.301140E-02
      9133 MEMB     74       PYPG     H6X      HAL2     0.900000E-01   1.00800           0   0.00000     -0.301140E-02
      9134 MEMB     74       PYPG     H6Y      HAL2     0.900000E-01   1.00800           0   0.00000     -0.301140E-02
      9135 MEMB     74       PYPG     C37      CTL2    -0.180000       12.0110           0   0.00000     -0.301140E-02
      9136 MEMB     74       PYPG     H7X      HAL2     0.900000E-01   1.00800           0   0.00000     -0.301140E-02
      9137 MEMB     74       PYPG     H7Y      HAL2     0.900000E-01   1.00800           0   0.00000     -0.301140E-02
      9138 MEMB     74       PYPG     C38      CTL2    -0.180000       12.0110           0   0.00000     -0.301140E-02
      9139 MEMB     74       PYPG     H8X      HAL2     0.900000E-01   1.00800           0   0.00000     -0.301140E-02
      9140 MEMB     74       PYPG     H8Y      HAL2     0.900000E-01   1.00800           0   0.00000     -0.301140E-02
      9141 MEMB     74       PYPG     C39      CTL2    -0.180000       12.0110           0   0.00000     -0.301140E-02
      9142 MEMB     74       PYPG     H9X      HAL2     0.900000E-01   1.00800           0   0.00000     -0.301140E-02
      9143 MEMB     74       PYPG     H9Y      HAL2     0.900000E-01   1.00800           0   0.00000     -0.301140E-02
      9144 MEMB     74       PYPG     C310     CTL2    -0.180000       12.0110           0   0.00000     -0.301140E-02
      9145 MEMB     74       PYPG     H10X     HAL2     0.900000E-01   1.00800           0   0.00000     -0.301140E-02
      9146 MEMB     74       PYPG     H10Y     HAL2     0.900000E-01   1.00800           0   0.00000     -0.301140E-02
      9147 MEMB     74       PYPG     C311     CTL2    -0.180000       12.0110           0   0.00000     -0.301140E-02
      9148 MEMB     74       PYPG     H11X     HAL2     0.900000E-01   1.00800           0   0.00000     -0.301140E-02
      9149 MEMB     74       PYPG     H11Y     HAL2     0.900000E-01   1.00800           0   0.00000     -0.301140E-02
      9150 MEMB     74       PYPG     C312     CTL2    -0.180000       12.0110           0   0.00000     -0.301140E-02
      9151 MEMB     74       PYPG     H12X     HAL2     0.900000E-01   1.00800           0   0.00000     -0.301140E-02
      9152 MEMB     74       PYPG     H12Y     HAL2     0.900000E-01   1.00800           0   0.00000     -0.301140E-02
      9153 MEMB     74       PYPG     C313     CTL2    -0.180000       12.0110           0   0.00000     -0.301140E-02
      9154 MEMB     74       PYPG     H13X     HAL2     0.900000E-01   1.00800           0   0.00000     -0.301140E-02
      9155 MEMB     74       PYPG     H13Y     HAL2     0.900000E-01   1.00800           0   0.00000     -0.301140E-02
      9156 MEMB     74       PYPG     C314     CTL2    -0.180000       12.0110           0   0.00000     -0.301140E-02
      9157 MEMB     74       PYPG     H14X     HAL2     0.900000E-01   1.00800           0   0.00000     -0.301140E-02
      9158 MEMB     74       PYPG     H14Y     HAL2     0.900000E-01   1.00800           0   0.00000     -0.301140E-02
      9159 MEMB     74       PYPG     C315     CTL2    -0.180000       12.0110           0   0.00000     -0.301140E-02
      9160 MEMB     74       PYPG     H15X     HAL2     0.900000E-01   1.00800           0   0.00000     -0.301140E-02
      9161 MEMB     74       PYPG     H15Y     HAL2     0.900000E-01   1.00800           0   0.00000     -0.301140E-02
      9162 MEMB     74       PYPG     C316     CTL3    -0.270000       12.0110           0   0.00000     -0.301140E-02
      9163 MEMB     74       PYPG     H16X     HAL3     0.900000E-01   1.00800           0   0.00000     -0.301140E-02
      9164 MEMB     74       PYPG     H16Y     HAL3     0.900000E-01   1.00800           0   0.00000     -0.301140E-02
      9165 MEMB     74       PYPG     H16Z     HAL3     0.900000E-01   1.00800           0   0.00000     -0.301140E-02
      9166 MEMB     75       POPE     N        NH3L    -0.300000       14.0070           0   0.00000     -0.301140E-02
      9167 MEMB     75       POPE     HN1      HCL      0.330000       1.00800           0   0.00000     -0.301140E-02
      9168 MEMB     75       POPE     HN2      HCL      0.330000       1.00800           0   0.00000     -0.301140E-02
      9169 MEMB     75       POPE     HN3      HCL      0.330000       1.00800           0   0.00000     -0.301140E-02
      9170 MEMB     75       POPE     C12      CTL2     0.130000       12.0110           0   0.00000     -0.301140E-02
      9171 MEMB     75       POPE     H12A     HAL2     0.900000E-01   1.00800           0   0.00000     -0.301140E-02
      9172 MEMB     75       POPE     H12B     HAL2     0.900000E-01   1.00800           0   0.00000     -0.301140E-02
      9173 MEMB     75       POPE     C11      CTL2    -0.800000E-01   12.0110           0   0.00000     -0.301140E-02
      9174 MEMB     75       POPE     H11A     HAL2     0.900000E-01   1.00800           0   0.00000     -0.301140E-02
      9175 MEMB     75       POPE     H11B     HAL2     0.900000E-01   1.00800           0   0.00000     -0.301140E-02
      9176 MEMB     75       POPE     P        PL        1.50000       30.9740           0   0.00000     -0.301140E-02
      9177 MEMB     75       POPE     O13      O2L     -0.780000       15.9994           0   0.00000     -0.301140E-02
      9178 MEMB     75       POPE     O14      O2L     -0.780000       15.9994           0   0.00000     -0.301140E-02
      9179 MEMB     75       POPE     O11      OSLP    -0.570000       15.9994           0   0.00000     -0.301140E-02
      9180 MEMB     75       POPE     O12      OSLP    -0.570000       15.9994           0   0.00000     -0.301140E-02
      9181 MEMB     75       POPE     C1       CTL2    -0.800000E-01   12.0110           0   0.00000     -0.301140E-02
      9182 MEMB     75       POPE     HA       HAL2     0.900000E-01   1.00800           0   0.00000     -0.301140E-02
      9183 MEMB     75       POPE     HB       HAL2     0.900000E-01   1.00800           0   0.00000     -0.301140E-02
      9184 MEMB     75       POPE     C2       CTL1     0.170000       12.0110           0   0.00000     -0.301140E-02
      9185 MEMB     75       POPE     HS       HAL1     0.900000E-01   1.00800           0   0.00000     -0.301140E-02
      9186 MEMB     75       POPE     O21      OSL     -0.490000       15.9994           0   0.00000     -0.301140E-02
      9187 MEMB     75       POPE     C21      CL       0.900000       12.0110           0   0.00000     -0.301140E-02
      9188 MEMB     75       POPE     O22      OBL     -0.630000       15.9994           0   0.00000     -0.301140E-02
      9189 MEMB     75       POPE     C22      CTL2    -0.220000       12.0110           0   0.00000     -0.301140E-02
      9190 MEMB     75       POPE     H2R      HAL2     0.900000E-01   1.00800           0   0.00000     -0.301140E-02
      9191 MEMB     75       POPE     H2S      HAL2     0.900000E-01   1.00800           0   0.00000     -0.301140E-02
      9192 MEMB     75       POPE     C3       CTL2     0.800000E-01   12.0110           0   0.00000     -0.301140E-02
      9193 MEMB     75       POPE     HX       HAL2     0.900000E-01   1.00800           0   0.00000     -0.301140E-02
      9194 MEMB     75       POPE     HY       HAL2     0.900000E-01   1.00800           0   0.00000     -0.301140E-02
      9195 MEMB     75       POPE     O31      OSL     -0.490000       15.9994           0   0.00000     -0.301140E-02
      9196 MEMB     75       POPE     C31      CL       0.900000       12.0110           0   0.00000     -0.301140E-02
      9197 MEMB     75       POPE     O32      OBL     -0.630000       15.9994           0   0.00000     -0.301140E-02
      9198 MEMB     75       POPE     C32      CTL2    -0.220000       12.0110           0   0.00000     -0.301140E-02
      9199 MEMB     75       POPE     H2X      HAL2     0.900000E-01   1.00800           0   0.00000     -0.301140E-02
      9200 MEMB     75       POPE     H2Y      HAL2     0.900000E-01   1.00800           0   0.00000     -0.301140E-02
      9201 MEMB     75       POPE     C23      CTL2    -0.180000       12.0110           0   0.00000     -0.301140E-02
      9202 MEMB     75       POPE     H3R      HAL2     0.900000E-01   1.00800           0   0.00000     -0.301140E-02
      9203 MEMB     75       POPE     H3S      HAL2     0.900000E-01   1.00800           0   0.00000     -0.301140E-02
      9204 MEMB     75       POPE     C24      CTL2    -0.180000       12.0110           0   0.00000     -0.301140E-02
      9205 MEMB     75       POPE     H4R      HAL2     0.900000E-01   1.00800           0   0.00000     -0.301140E-02
      9206 MEMB     75       POPE     H4S      HAL2     0.900000E-01   1.00800           0   0.00000     -0.301140E-02
      9207 MEMB     75       POPE     C25      CTL2    -0.180000       12.0110           0   0.00000     -0.301140E-02
      9208 MEMB     75       POPE     H5R      HAL2     0.900000E-01   1.00800           0   0.00000     -0.301140E-02
      9209 MEMB     75       POPE     H5S      HAL2     0.900000E-01   1.00800           0   0.00000     -0.301140E-02
      9210 MEMB     75       POPE     C26      CTL2    -0.180000       12.0110           0   0.00000     -0.301140E-02
      9211 MEMB     75       POPE     H6R      HAL2     0.900000E-01   1.00800           0   0.00000     -0.301140E-02
      9212 MEMB     75       POPE     H6S      HAL2     0.900000E-01   1.00800           0   0.00000     -0.301140E-02
      9213 MEMB     75       POPE     C27      CTL2    -0.180000       12.0110           0   0.00000     -0.301140E-02
      9214 MEMB     75       POPE     H7R      HAL2     0.900000E-01   1.00800           0   0.00000     -0.301140E-02
      9215 MEMB     75       POPE     H7S      HAL2     0.900000E-01   1.00800           0   0.00000     -0.301140E-02
      9216 MEMB     75       POPE     C28      CTL2    -0.180000       12.0110           0   0.00000     -0.301140E-02
      9217 MEMB     75       POPE     H8R      HAL2     0.900000E-01   1.00800           0   0.00000     -0.301140E-02
      9218 MEMB     75       POPE     H8S      HAL2     0.900000E-01   1.00800           0   0.00000     -0.301140E-02
      9219 MEMB     75       POPE     C29      CEL1    -0.150000       12.0110           0   0.00000     -0.301140E-02
      9220 MEMB     75       POPE     H91      HEL1     0.150000       1.00800           0   0.00000     -0.301140E-02
      9221 MEMB     75       POPE     C210     CEL1    -0.150000       12.0110           0   0.00000     -0.301140E-02
      9222 MEMB     75       POPE     H101     HEL1     0.150000       1.00800           0   0.00000     -0.301140E-02
      9223 MEMB     75       POPE     C211     CTL2    -0.180000       12.0110           0   0.00000     -0.301140E-02
      9224 MEMB     75       POPE     H11R     HAL2     0.900000E-01   1.00800           0   0.00000     -0.301140E-02
      9225 MEMB     75       POPE     H11S     HAL2     0.900000E-01   1.00800           0   0.00000     -0.301140E-02
      9226 MEMB     75       POPE     C212     CTL2    -0.180000       12.0110           0   0.00000     -0.301140E-02
      9227 MEMB     75       POPE     H12R     HAL2     0.900000E-01   1.00800           0   0.00000     -0.301140E-02
      9228 MEMB     75       POPE     H12S     HAL2     0.900000E-01   1.00800           0   0.00000     -0.301140E-02
      9229 MEMB     75       POPE     C213     CTL2    -0.180000       12.0110           0   0.00000     -0.301140E-02
      9230 MEMB     75       POPE     H13R     HAL2     0.900000E-01   1.00800           0   0.00000     -0.301140E-02
      9231 MEMB     75       POPE     H13S     HAL2     0.900000E-01   1.00800           0   0.00000     -0.301140E-02
      9232 MEMB     75       POPE     C214     CTL2    -0.180000       12.0110           0   0.00000     -0.301140E-02
      9233 MEMB     75       POPE     H14R     HAL2     0.900000E-01   1.00800           0   0.00000     -0.301140E-02
      9234 MEMB     75       POPE     H14S     HAL2     0.900000E-01   1.00800           0   0.00000     -0.301140E-02
      9235 MEMB     75       POPE     C215     CTL2    -0.180000       12.0110           0   0.00000     -0.301140E-02
      9236 MEMB     75       POPE     H15R     HAL2     0.900000E-01   1.00800           0   0.00000     -0.301140E-02
      9237 MEMB     75       POPE     H15S     HAL2     0.900000E-01   1.00800           0   0.00000     -0.301140E-02
      9238 MEMB     75       POPE     C216     CTL2    -0.180000       12.0110           0   0.00000     -0.301140E-02
      9239 MEMB     75       POPE     H16R     HAL2     0.900000E-01   1.00800           0   0.00000     -0.301140E-02
      9240 MEMB     75       POPE     H16S     HAL2     0.900000E-01   1.00800           0   0.00000     -0.301140E-02
      9241 MEMB     75       POPE     C217     CTL2    -0.180000       12.0110           0   0.00000     -0.301140E-02
      9242 MEMB     75       POPE     H17R     HAL2     0.900000E-01   1.00800           0   0.00000     -0.301140E-02
      9243 MEMB     75       POPE     H17S     HAL2     0.900000E-01   1.00800           0   0.00000     -0.301140E-02
      9244 MEMB     75       POPE     C218     CTL3    -0.270000       12.0110           0   0.00000     -0.301140E-02
      9245 MEMB     75       POPE     H18R     HAL3     0.900000E-01   1.00800           0   0.00000     -0.301140E-02
      9246 MEMB     75       POPE     H18S     HAL3     0.900000E-01   1.00800           0   0.00000     -0.301140E-02
      9247 MEMB     75       POPE     H18T     HAL3     0.900000E-01   1.00800           0   0.00000     -0.301140E-02
      9248 MEMB     75       POPE     C33      CTL2    -0.180000       12.0110           0   0.00000     -0.301140E-02
      9249 MEMB     75       POPE     H3X      HAL2     0.900000E-01   1.00800           0   0.00000     -0.301140E-02
      9250 MEMB     75       POPE     H3Y      HAL2     0.900000E-01   1.00800           0   0.00000     -0.301140E-02
      9251 MEMB     75       POPE     C34      CTL2    -0.180000       12.0110           0   0.00000     -0.301140E-02
      9252 MEMB     75       POPE     H4X      HAL2     0.900000E-01   1.00800           0   0.00000     -0.301140E-02
      9253 MEMB     75       POPE     H4Y      HAL2     0.900000E-01   1.00800           0   0.00000     -0.301140E-02
      9254 MEMB     75       POPE     C35      CTL2    -0.180000       12.0110           0   0.00000     -0.301140E-02
      9255 MEMB     75       POPE     H5X      HAL2     0.900000E-01   1.00800           0   0.00000     -0.301140E-02
      9256 MEMB     75       POPE     H5Y      HAL2     0.900000E-01   1.00800           0   0.00000     -0.301140E-02
      9257 MEMB     75       POPE     C36      CTL2    -0.180000       12.0110           0   0.00000     -0.301140E-02
      9258 MEMB     75       POPE     H6X      HAL2     0.900000E-01   1.00800           0   0.00000     -0.301140E-02
      9259 MEMB     75       POPE     H6Y      HAL2     0.900000E-01   1.00800           0   0.00000     -0.301140E-02
      9260 MEMB     75       POPE     C37      CTL2    -0.180000       12.0110           0   0.00000     -0.301140E-02
      9261 MEMB     75       POPE     H7X      HAL2     0.900000E-01   1.00800           0   0.00000     -0.301140E-02
      9262 MEMB     75       POPE     H7Y      HAL2     0.900000E-01   1.00800           0   0.00000     -0.301140E-02
      9263 MEMB     75       POPE     C38      CTL2    -0.180000       12.0110           0   0.00000     -0.301140E-02
      9264 MEMB     75       POPE     H8X      HAL2     0.900000E-01   1.00800           0   0.00000     -0.301140E-02
      9265 MEMB     75       POPE     H8Y      HAL2     0.900000E-01   1.00800           0   0.00000     -0.301140E-02
      9266 MEMB     75       POPE     C39      CTL2    -0.180000       12.0110           0   0.00000     -0.301140E-02
      9267 MEMB     75       POPE     H9X      HAL2     0.900000E-01   1.00800           0   0.00000     -0.301140E-02
      9268 MEMB     75       POPE     H9Y      HAL2     0.900000E-01   1.00800           0   0.00000     -0.301140E-02
      9269 MEMB     75       POPE     C310     CTL2    -0.180000       12.0110           0   0.00000     -0.301140E-02
      9270 MEMB     75       POPE     H10X     HAL2     0.900000E-01   1.00800           0   0.00000     -0.301140E-02
      9271 MEMB     75       POPE     H10Y     HAL2     0.900000E-01   1.00800           0   0.00000     -0.301140E-02
      9272 MEMB     75       POPE     C311     CTL2    -0.180000       12.0110           0   0.00000     -0.301140E-02
      9273 MEMB     75       POPE     H11X     HAL2     0.900000E-01   1.00800           0   0.00000     -0.301140E-02
      9274 MEMB     75       POPE     H11Y     HAL2     0.900000E-01   1.00800           0   0.00000     -0.301140E-02
      9275 MEMB     75       POPE     C312     CTL2    -0.180000       12.0110           0   0.00000     -0.301140E-02
      9276 MEMB     75       POPE     H12X     HAL2     0.900000E-01   1.00800           0   0.00000     -0.301140E-02
      9277 MEMB     75       POPE     H12Y     HAL2     0.900000E-01   1.00800           0   0.00000     -0.301140E-02
      9278 MEMB     75       POPE     C313     CTL2    -0.180000       12.0110           0   0.00000     -0.301140E-02
      9279 MEMB     75       POPE     H13X     HAL2     0.900000E-01   1.00800           0   0.00000     -0.301140E-02
      9280 MEMB     75       POPE     H13Y     HAL2     0.900000E-01   1.00800           0   0.00000     -0.301140E-02
      9281 MEMB     75       POPE     C314     CTL2    -0.180000       12.0110           0   0.00000     -0.301140E-02
      9282 MEMB     75       POPE     H14X     HAL2     0.900000E-01   1.00800           0   0.00000     -0.301140E-02
      9283 MEMB     75       POPE     H14Y     HAL2     0.900000E-01   1.00800           0   0.00000     -0.301140E-02
      9284 MEMB     75       POPE     C315     CTL2    -0.180000       12.0110           0   0.00000     -0.301140E-02
      9285 MEMB     75       POPE     H15X     HAL2     0.900000E-01   1.00800           0   0.00000     -0.301140E-02
      9286 MEMB     75       POPE     H15Y     HAL2     0.900000E-01   1.00800           0   0.00000     -0.301140E-02
      9287 MEMB     75       POPE     C316     CTL3    -0.270000       12.0110           0   0.00000     -0.301140E-02
      9288 MEMB     75       POPE     H16X     HAL3     0.900000E-01   1.00800           0   0.00000     -0.301140E-02
      9289 MEMB     75       POPE     H16Y     HAL3     0.900000E-01   1.00800           0   0.00000     -0.301140E-02
      9290 MEMB     75       POPE     H16Z     HAL3     0.900000E-01   1.00800           0   0.00000     -0.301140E-02
      9291 MEMB     76       QMPE     N        NH3L    -0.300000       14.0070           0   0.00000     -0.301140E-02
      9292 MEMB     76       QMPE     HN1      HCL      0.330000       1.00800           0   0.00000     -0.301140E-02
      9293 MEMB     76       QMPE     HN2      HCL      0.330000       1.00800           0   0.00000     -0.301140E-02
      9294 MEMB     76       QMPE     HN3      HCL      0.330000       1.00800           0   0.00000     -0.301140E-02
      9295 MEMB     76       QMPE     C12      CTL2     0.130000       12.0110           0   0.00000     -0.301140E-02
      9296 MEMB     76       QMPE     H12A     HAL2     0.900000E-01   1.00800           0   0.00000     -0.301140E-02
      9297 MEMB     76       QMPE     H12B     HAL2     0.900000E-01   1.00800           0   0.00000     -0.301140E-02
      9298 MEMB     76       QMPE     C11      CTL2    -0.800000E-01   12.0110           0   0.00000     -0.301140E-02
      9299 MEMB     76       QMPE     H11A     HAL2     0.900000E-01   1.00800           0   0.00000     -0.301140E-02
      9300 MEMB     76       QMPE     H11B     HAL2     0.900000E-01   1.00800           0   0.00000     -0.301140E-02
      9301 MEMB     76       QMPE     P        PL        1.50000       30.9740           0   0.00000     -0.301140E-02
      9302 MEMB     76       QMPE     O13      O2L     -0.780000       15.9994           0   0.00000     -0.301140E-02
      9303 MEMB     76       QMPE     O14      O2L     -0.780000       15.9994           0   0.00000     -0.301140E-02
      9304 MEMB     76       QMPE     O11      OSLP    -0.570000       15.9994           0   0.00000     -0.301140E-02
      9305 MEMB     76       QMPE     O12      OSLP    -0.570000       15.9994           0   0.00000     -0.301140E-02
      9306 MEMB     76       QMPE     C1       CTL2    -0.800000E-01   12.0110           0   0.00000     -0.301140E-02
      9307 MEMB     76       QMPE     HA       HAL2     0.900000E-01   1.00800           0   0.00000     -0.301140E-02
      9308 MEMB     76       QMPE     HB       HAL2     0.900000E-01   1.00800           0   0.00000     -0.301140E-02
      9309 MEMB     76       QMPE     C2       CTL1     0.170000       12.0110           0   0.00000     -0.301140E-02
      9310 MEMB     76       QMPE     HS       HAL1     0.900000E-01   1.00800           0   0.00000     -0.301140E-02
      9311 MEMB     76       QMPE     O21      OSL     -0.490000       15.9994           0   0.00000     -0.301140E-02
      9312 MEMB     76       QMPE     C21      CL       0.900000       12.0110           0   0.00000     -0.301140E-02
      9313 MEMB     76       QMPE     O22      OBL     -0.630000       15.9994           0   0.00000     -0.301140E-02
      9314 MEMB     76       QMPE     C22      CTL2    -0.220000       12.0110           0   0.00000     -0.301140E-02
      9315 MEMB     76       QMPE     H2R      HAL2     0.900000E-01   1.00800           0   0.00000     -0.301140E-02
      9316 MEMB     76       QMPE     H2S      HAL2     0.900000E-01   1.00800           0   0.00000     -0.301140E-02
      9317 MEMB     76       QMPE     C3       CTL2     0.800000E-01   12.0110           0   0.00000     -0.301140E-02
      9318 MEMB     76       QMPE     HX       HAL2     0.900000E-01   1.00800           0   0.00000     -0.301140E-02
      9319 MEMB     76       QMPE     HY       HAL2     0.900000E-01   1.00800           0   0.00000     -0.301140E-02
      9320 MEMB     76       QMPE     O31      OSL     -0.490000       15.9994           0   0.00000     -0.301140E-02
      9321 MEMB     76       QMPE     C31      CL       0.900000       12.0110           0   0.00000     -0.301140E-02
      9322 MEMB     76       QMPE     O32      OBL     -0.630000       15.9994           0   0.00000     -0.301140E-02
      9323 MEMB     76       QMPE     C32      CTL2    -0.220000       12.0110           0   0.00000     -0.301140E-02
      9324 MEMB     76       QMPE     H2X      HAL2     0.900000E-01   1.00800           0   0.00000     -0.301140E-02
      9325 MEMB     76       QMPE     H2Y      HAL2     0.900000E-01   1.00800           0   0.00000     -0.301140E-02
      9326 MEMB     76       QMPE     C23      CTL2    -0.180000       12.0110           0   0.00000     -0.301140E-02
      9327 MEMB     76       QMPE     H3R      HAL2     0.900000E-01   1.00800           0   0.00000     -0.301140E-02
      9328 MEMB     76       QMPE     H3S      HAL2     0.900000E-01   1.00800           0   0.00000     -0.301140E-02
      9329 MEMB     76       QMPE     C24      CTL2    -0.180000       12.0110           0   0.00000     -0.301140E-02
      9330 MEMB     76       QMPE     H4R      HAL2     0.900000E-01   1.00800           0   0.00000     -0.301140E-02
      9331 MEMB     76       QMPE     H4S      HAL2     0.900000E-01   1.00800           0   0.00000     -0.301140E-02
      9332 MEMB     76       QMPE     C25      CTL2    -0.180000       12.0110           0   0.00000     -0.301140E-02
      9333 MEMB     76       QMPE     H5R      HAL2     0.900000E-01   1.00800           0   0.00000     -0.301140E-02
      9334 MEMB     76       QMPE     H5S      HAL2     0.900000E-01   1.00800           0   0.00000     -0.301140E-02
      9335 MEMB     76       QMPE     C26      CTL2    -0.180000       12.0110           0   0.00000     -0.301140E-02
      9336 MEMB     76       QMPE     H6R      HAL2     0.900000E-01   1.00800           0   0.00000     -0.301140E-02
      9337 MEMB     76       QMPE     H6S      HAL2     0.900000E-01   1.00800           0   0.00000     -0.301140E-02
      9338 MEMB     76       QMPE     C27      CTL2    -0.180000       12.0110           0   0.00000     -0.301140E-02
      9339 MEMB     76       QMPE     H7R      HAL2     0.900000E-01   1.00800           0   0.00000     -0.301140E-02
      9340 MEMB     76       QMPE     H7S      HAL2     0.900000E-01   1.00800           0   0.00000     -0.301140E-02
      9341 MEMB     76       QMPE     C28      CTL2    -0.180000       12.0110           0   0.00000     -0.301140E-02
      9342 MEMB     76       QMPE     H8R      HAL2     0.900000E-01   1.00800           0   0.00000     -0.301140E-02
      9343 MEMB     76       QMPE     H8S      HAL2     0.900000E-01   1.00800           0   0.00000     -0.301140E-02
      9344 MEMB     76       QMPE     C29      CG3RC1  -0.900000E-01   12.0110           0   0.00000     -0.301140E-02
      9345 MEMB     76       QMPE     H9R      HGA1     0.900000E-01   1.00800           0   0.00000     -0.301140E-02
      9346 MEMB     76       QMPE     C217     CG3C31  -0.180000       12.0110           0   0.00000     -0.301140E-02
      9347 MEMB     76       QMPE     H17R     HGA2     0.900000E-01   1.00800           0   0.00000     -0.301140E-02
      9348 MEMB     76       QMPE     H17S     HGA2     0.900000E-01   1.00800           0   0.00000     -0.301140E-02
      9349 MEMB     76       QMPE     C210     CG3RC1  -0.900000E-01   12.0110           0   0.00000     -0.301140E-02
      9350 MEMB     76       QMPE     H10R     HGA1     0.900000E-01   1.00800           0   0.00000     -0.301140E-02
      9351 MEMB     76       QMPE     C211     CTL2    -0.180000       12.0110           0   0.00000     -0.301140E-02
      9352 MEMB     76       QMPE     H11R     HAL2     0.900000E-01   1.00800           0   0.00000     -0.301140E-02
      9353 MEMB     76       QMPE     H11S     HAL2     0.900000E-01   1.00800           0   0.00000     -0.301140E-02
      9354 MEMB     76       QMPE     C212     CTL2    -0.180000       12.0110           0   0.00000     -0.301140E-02
      9355 MEMB     76       QMPE     H12R     HAL2     0.900000E-01   1.00800           0   0.00000     -0.301140E-02
      9356 MEMB     76       QMPE     H12S     HAL2     0.900000E-01   1.00800           0   0.00000     -0.301140E-02
      9357 MEMB     76       QMPE     C213     CTL2    -0.180000       12.0110           0   0.00000     -0.301140E-02
      9358 MEMB     76       QMPE     H13R     HAL2     0.900000E-01   1.00800           0   0.00000     -0.301140E-02
      9359 MEMB     76       QMPE     H13S     HAL2     0.900000E-01   1.00800           0   0.00000     -0.301140E-02
      9360 MEMB     76       QMPE     C214     CTL2    -0.180000       12.0110           0   0.00000     -0.301140E-02
      9361 MEMB     76       QMPE     H14R     HAL2     0.900000E-01   1.00800           0   0.00000     -0.301140E-02
      9362 MEMB     76       QMPE     H14S     HAL2     0.900000E-01   1.00800           0   0.00000     -0.301140E-02
      9363 MEMB     76       QMPE     C215     CTL2    -0.180000       12.0110           0   0.00000     -0.301140E-02
      9364 MEMB     76       QMPE     H15R     HAL2     0.900000E-01   1.00800           0   0.00000     -0.301140E-02
      9365 MEMB     76       QMPE     H15S     HAL2     0.900000E-01   1.00800           0   0.00000     -0.301140E-02
      9366 MEMB     76       QMPE     C216     CTL3    -0.270000       12.0110           0   0.00000     -0.301140E-02
      9367 MEMB     76       QMPE     H16R     HAL3     0.900000E-01   1.00800           0   0.00000     -0.301140E-02
      9368 MEMB     76       QMPE     H16S     HAL3     0.900000E-01   1.00800           0   0.00000     -0.301140E-02
      9369 MEMB     76       QMPE     H16T     HAL3     0.900000E-01   1.00800           0   0.00000     -0.301140E-02
      9370 MEMB     76       QMPE     C33      CTL2    -0.180000       12.0110           0   0.00000     -0.301140E-02
      9371 MEMB     76       QMPE     H3X      HAL2     0.900000E-01   1.00800           0   0.00000     -0.301140E-02
      9372 MEMB     76       QMPE     H3Y      HAL2     0.900000E-01   1.00800           0   0.00000     -0.301140E-02
      9373 MEMB     76       QMPE     C34      CTL2    -0.180000       12.0110           0   0.00000     -0.301140E-02
      9374 MEMB     76       QMPE     H4X      HAL2     0.900000E-01   1.00800           0   0.00000     -0.301140E-02
      9375 MEMB     76       QMPE     H4Y      HAL2     0.900000E-01   1.00800           0   0.00000     -0.301140E-02
      9376 MEMB     76       QMPE     C35      CTL2    -0.180000       12.0110           0   0.00000     -0.301140E-02
      9377 MEMB     76       QMPE     H5X      HAL2     0.900000E-01   1.00800           0   0.00000     -0.301140E-02
      9378 MEMB     76       QMPE     H5Y      HAL2     0.900000E-01   1.00800           0   0.00000     -0.301140E-02
      9379 MEMB     76       QMPE     C36      CTL2    -0.180000       12.0110           0   0.00000     -0.301140E-02
      9380 MEMB     76       QMPE     H6X      HAL2     0.900000E-01   1.00800           0   0.00000     -0.301140E-02
      9381 MEMB     76       QMPE     H6Y      HAL2     0.900000E-01   1.00800           0   0.00000     -0.301140E-02
      9382 MEMB     76       QMPE     C37      CTL2    -0.180000       12.0110           0   0.00000     -0.301140E-02
      9383 MEMB     76       QMPE     H7X      HAL2     0.900000E-01   1.00800           0   0.00000     -0.301140E-02
      9384 MEMB     76       QMPE     H7Y      HAL2     0.900000E-01   1.00800           0   0.00000     -0.301140E-02
      9385 MEMB     76       QMPE     C38      CTL2    -0.180000       12.0110           0   0.00000     -0.301140E-02
      9386 MEMB     76       QMPE     H8X      HAL2     0.900000E-01   1.00800           0   0.00000     -0.301140E-02
      9387 MEMB     76       QMPE     H8Y      HAL2     0.900000E-01   1.00800           0   0.00000     -0.301140E-02
      9388 MEMB     76       QMPE     C39      CTL2    -0.180000       12.0110           0   0.00000     -0.301140E-02
      9389 MEMB     76       QMPE     H9X      HAL2     0.900000E-01   1.00800           0   0.00000     -0.301140E-02
      9390 MEMB     76       QMPE     H9Y      HAL2     0.900000E-01   1.00800           0   0.00000     -0.301140E-02
      9391 MEMB     76       QMPE     C310     CTL2    -0.180000       12.0110           0   0.00000     -0.301140E-02
      9392 MEMB     76       QMPE     H10X     HAL2     0.900000E-01   1.00800           0   0.00000     -0.301140E-02
      9393 MEMB     76       QMPE     H10Y     HAL2     0.900000E-01   1.00800           0   0.00000     -0.301140E-02
      9394 MEMB     76       QMPE     C311     CTL2    -0.180000       12.0110           0   0.00000     -0.301140E-02
      9395 MEMB     76       QMPE     H11X     HAL2     0.900000E-01   1.00800           0   0.00000     -0.301140E-02
      9396 MEMB     76       QMPE     H11Y     HAL2     0.900000E-01   1.00800           0   0.00000     -0.301140E-02
      9397 MEMB     76       QMPE     C312     CTL2    -0.180000       12.0110           0   0.00000     -0.301140E-02
      9398 MEMB     76       QMPE     H12X     HAL2     0.900000E-01   1.00800           0   0.00000     -0.301140E-02
      9399 MEMB     76       QMPE     H12Y     HAL2     0.900000E-01   1.00800           0   0.00000     -0.301140E-02
      9400 MEMB     76       QMPE     C313     CTL2    -0.180000       12.0110           0   0.00000     -0.301140E-02
      9401 MEMB     76       QMPE     H13X     HAL2     0.900000E-01   1.00800           0   0.00000     -0.301140E-02
      9402 MEMB     76       QMPE     H13Y     HAL2     0.900000E-01   1.00800           0   0.00000     -0.301140E-02
      9403 MEMB     76       QMPE     C314     CTL2    -0.180000       12.0110           0   0.00000     -0.301140E-02
      9404 MEMB     76       QMPE     H14X     HAL2     0.900000E-01   1.00800           0   0.00000     -0.301140E-02
      9405 MEMB     76       QMPE     H14Y     HAL2     0.900000E-01   1.00800           0   0.00000     -0.301140E-02
      9406 MEMB     76       QMPE     C315     CTL3    -0.270000       12.0110           0   0.00000     -0.301140E-02
      9407 MEMB     76       QMPE     H15X     HAL3     0.900000E-01   1.00800           0   0.00000     -0.301140E-02
      9408 MEMB     76       QMPE     H15Y     HAL3     0.900000E-01   1.00800           0   0.00000     -0.301140E-02
      9409 MEMB     76       QMPE     H15Z     HAL3     0.900000E-01   1.00800           0   0.00000     -0.301140E-02
      9410 MEMB     77       PMPE     N        NH3L    -0.300000       14.0070           0   0.00000     -0.301140E-02
      9411 MEMB     77       PMPE     HN1      HCL      0.330000       1.00800           0   0.00000     -0.301140E-02
      9412 MEMB     77       PMPE     HN2      HCL      0.330000       1.00800           0   0.00000     -0.301140E-02
      9413 MEMB     77       PMPE     HN3      HCL      0.330000       1.00800           0   0.00000     -0.301140E-02
      9414 MEMB     77       PMPE     C12      CTL2     0.130000       12.0110           0   0.00000     -0.301140E-02
      9415 MEMB     77       PMPE     H12A     HAL2     0.900000E-01   1.00800           0   0.00000     -0.301140E-02
      9416 MEMB     77       PMPE     H12B     HAL2     0.900000E-01   1.00800           0   0.00000     -0.301140E-02
      9417 MEMB     77       PMPE     C11      CTL2    -0.800000E-01   12.0110           0   0.00000     -0.301140E-02
      9418 MEMB     77       PMPE     H11A     HAL2     0.900000E-01   1.00800           0   0.00000     -0.301140E-02
      9419 MEMB     77       PMPE     H11B     HAL2     0.900000E-01   1.00800           0   0.00000     -0.301140E-02
      9420 MEMB     77       PMPE     P        PL        1.50000       30.9740           0   0.00000     -0.301140E-02
      9421 MEMB     77       PMPE     O13      O2L     -0.780000       15.9994           0   0.00000     -0.301140E-02
      9422 MEMB     77       PMPE     O14      O2L     -0.780000       15.9994           0   0.00000     -0.301140E-02
      9423 MEMB     77       PMPE     O11      OSLP    -0.570000       15.9994           0   0.00000     -0.301140E-02
      9424 MEMB     77       PMPE     O12      OSLP    -0.570000       15.9994           0   0.00000     -0.301140E-02
      9425 MEMB     77       PMPE     C1       CTL2    -0.800000E-01   12.0110           0   0.00000     -0.301140E-02
      9426 MEMB     77       PMPE     HA       HAL2     0.900000E-01   1.00800           0   0.00000     -0.301140E-02
      9427 MEMB     77       PMPE     HB       HAL2     0.900000E-01   1.00800           0   0.00000     -0.301140E-02
      9428 MEMB     77       PMPE     C2       CTL1     0.170000       12.0110           0   0.00000     -0.301140E-02
      9429 MEMB     77       PMPE     HS       HAL1     0.900000E-01   1.00800           0   0.00000     -0.301140E-02
      9430 MEMB     77       PMPE     O21      OSL     -0.490000       15.9994           0   0.00000     -0.301140E-02
      9431 MEMB     77       PMPE     C21      CL       0.900000       12.0110           0   0.00000     -0.301140E-02
      9432 MEMB     77       PMPE     O22      OBL     -0.630000       15.9994           0   0.00000     -0.301140E-02
      9433 MEMB     77       PMPE     C22      CTL2    -0.220000       12.0110           0   0.00000     -0.301140E-02
      9434 MEMB     77       PMPE     H2R      HAL2     0.900000E-01   1.00800           0   0.00000     -0.301140E-02
      9435 MEMB     77       PMPE     H2S      HAL2     0.900000E-01   1.00800           0   0.00000     -0.301140E-02
      9436 MEMB     77       PMPE     C3       CTL2     0.800000E-01   12.0110           0   0.00000     -0.301140E-02
      9437 MEMB     77       PMPE     HX       HAL2     0.900000E-01   1.00800           0   0.00000     -0.301140E-02
      9438 MEMB     77       PMPE     HY       HAL2     0.900000E-01   1.00800           0   0.00000     -0.301140E-02
      9439 MEMB     77       PMPE     O31      OSL     -0.490000       15.9994           0   0.00000     -0.301140E-02
      9440 MEMB     77       PMPE     C31      CL       0.900000       12.0110           0   0.00000     -0.301140E-02
      9441 MEMB     77       PMPE     O32      OBL     -0.630000       15.9994           0   0.00000     -0.301140E-02
      9442 MEMB     77       PMPE     C32      CTL2    -0.220000       12.0110           0   0.00000     -0.301140E-02
      9443 MEMB     77       PMPE     H2X      HAL2     0.900000E-01   1.00800           0   0.00000     -0.301140E-02
      9444 MEMB     77       PMPE     H2Y      HAL2     0.900000E-01   1.00800           0   0.00000     -0.301140E-02
      9445 MEMB     77       PMPE     C23      CTL2    -0.180000       12.0110           0   0.00000     -0.301140E-02
      9446 MEMB     77       PMPE     H3R      HAL2     0.900000E-01   1.00800           0   0.00000     -0.301140E-02
      9447 MEMB     77       PMPE     H3S      HAL2     0.900000E-01   1.00800           0   0.00000     -0.301140E-02
      9448 MEMB     77       PMPE     C24      CTL2    -0.180000       12.0110           0   0.00000     -0.301140E-02
      9449 MEMB     77       PMPE     H4R      HAL2     0.900000E-01   1.00800           0   0.00000     -0.301140E-02
      9450 MEMB     77       PMPE     H4S      HAL2     0.900000E-01   1.00800           0   0.00000     -0.301140E-02
      9451 MEMB     77       PMPE     C25      CTL2    -0.180000       12.0110           0   0.00000     -0.301140E-02
      9452 MEMB     77       PMPE     H5R      HAL2     0.900000E-01   1.00800           0   0.00000     -0.301140E-02
      9453 MEMB     77       PMPE     H5S      HAL2     0.900000E-01   1.00800           0   0.00000     -0.301140E-02
      9454 MEMB     77       PMPE     C26      CTL2    -0.180000       12.0110           0   0.00000     -0.301140E-02
      9455 MEMB     77       PMPE     H6R      HAL2     0.900000E-01   1.00800           0   0.00000     -0.301140E-02
      9456 MEMB     77       PMPE     H6S      HAL2     0.900000E-01   1.00800           0   0.00000     -0.301140E-02
      9457 MEMB     77       PMPE     C27      CTL2    -0.180000       12.0110           0   0.00000     -0.301140E-02
      9458 MEMB     77       PMPE     H7R      HAL2     0.900000E-01   1.00800           0   0.00000     -0.301140E-02
      9459 MEMB     77       PMPE     H7S      HAL2     0.900000E-01   1.00800           0   0.00000     -0.301140E-02
      9460 MEMB     77       PMPE     C28      CTL2    -0.180000       12.0110           0   0.00000     -0.301140E-02
      9461 MEMB     77       PMPE     H8R      HAL2     0.900000E-01   1.00800           0   0.00000     -0.301140E-02
      9462 MEMB     77       PMPE     H8S      HAL2     0.900000E-01   1.00800           0   0.00000     -0.301140E-02
      9463 MEMB     77       PMPE     C29      CG3RC1  -0.900000E-01   12.0110           0   0.00000     -0.301140E-02
      9464 MEMB     77       PMPE     H9R      HGA1     0.900000E-01   1.00800           0   0.00000     -0.301140E-02
      9465 MEMB     77       PMPE     C217     CG3C31  -0.180000       12.0110           0   0.00000     -0.301140E-02
      9466 MEMB     77       PMPE     H17R     HGA2     0.900000E-01   1.00800           0   0.00000     -0.301140E-02
      9467 MEMB     77       PMPE     H17S     HGA2     0.900000E-01   1.00800           0   0.00000     -0.301140E-02
      9468 MEMB     77       PMPE     C210     CG3RC1  -0.900000E-01   12.0110           0   0.00000     -0.301140E-02
      9469 MEMB     77       PMPE     H10R     HGA1     0.900000E-01   1.00800           0   0.00000     -0.301140E-02
      9470 MEMB     77       PMPE     C211     CTL2    -0.180000       12.0110           0   0.00000     -0.301140E-02
      9471 MEMB     77       PMPE     H11R     HAL2     0.900000E-01   1.00800           0   0.00000     -0.301140E-02
      9472 MEMB     77       PMPE     H11S     HAL2     0.900000E-01   1.00800           0   0.00000     -0.301140E-02
      9473 MEMB     77       PMPE     C212     CTL2    -0.180000       12.0110           0   0.00000     -0.301140E-02
      9474 MEMB     77       PMPE     H12R     HAL2     0.900000E-01   1.00800           0   0.00000     -0.301140E-02
      9475 MEMB     77       PMPE     H12S     HAL2     0.900000E-01   1.00800           0   0.00000     -0.301140E-02
      9476 MEMB     77       PMPE     C213     CTL2    -0.180000       12.0110           0   0.00000     -0.301140E-02
      9477 MEMB     77       PMPE     H13R     HAL2     0.900000E-01   1.00800           0   0.00000     -0.301140E-02
      9478 MEMB     77       PMPE     H13S     HAL2     0.900000E-01   1.00800           0   0.00000     -0.301140E-02
      9479 MEMB     77       PMPE     C214     CTL2    -0.180000       12.0110           0   0.00000     -0.301140E-02
      9480 MEMB     77       PMPE     H14R     HAL2     0.900000E-01   1.00800           0   0.00000     -0.301140E-02
      9481 MEMB     77       PMPE     H14S     HAL2     0.900000E-01   1.00800           0   0.00000     -0.301140E-02
      9482 MEMB     77       PMPE     C215     CTL2    -0.180000       12.0110           0   0.00000     -0.301140E-02
      9483 MEMB     77       PMPE     H15R     HAL2     0.900000E-01   1.00800           0   0.00000     -0.301140E-02
      9484 MEMB     77       PMPE     H15S     HAL2     0.900000E-01   1.00800           0   0.00000     -0.301140E-02
      9485 MEMB     77       PMPE     C216     CTL3    -0.270000       12.0110           0   0.00000     -0.301140E-02
      9486 MEMB     77       PMPE     H16R     HAL3     0.900000E-01   1.00800           0   0.00000     -0.301140E-02
      9487 MEMB     77       PMPE     H16S     HAL3     0.900000E-01   1.00800           0   0.00000     -0.301140E-02
      9488 MEMB     77       PMPE     H16T     HAL3     0.900000E-01   1.00800           0   0.00000     -0.301140E-02
      9489 MEMB     77       PMPE     C33      CTL2    -0.180000       12.0110           0   0.00000     -0.301140E-02
      9490 MEMB     77       PMPE     H3X      HAL2     0.900000E-01   1.00800           0   0.00000     -0.301140E-02
      9491 MEMB     77       PMPE     H3Y      HAL2     0.900000E-01   1.00800           0   0.00000     -0.301140E-02
      9492 MEMB     77       PMPE     C34      CTL2    -0.180000       12.0110           0   0.00000     -0.301140E-02
      9493 MEMB     77       PMPE     H4X      HAL2     0.900000E-01   1.00800           0   0.00000     -0.301140E-02
      9494 MEMB     77       PMPE     H4Y      HAL2     0.900000E-01   1.00800           0   0.00000     -0.301140E-02
      9495 MEMB     77       PMPE     C35      CTL2    -0.180000       12.0110           0   0.00000     -0.301140E-02
      9496 MEMB     77       PMPE     H5X      HAL2     0.900000E-01   1.00800           0   0.00000     -0.301140E-02
      9497 MEMB     77       PMPE     H5Y      HAL2     0.900000E-01   1.00800           0   0.00000     -0.301140E-02
      9498 MEMB     77       PMPE     C36      CTL2    -0.180000       12.0110           0   0.00000     -0.301140E-02
      9499 MEMB     77       PMPE     H6X      HAL2     0.900000E-01   1.00800           0   0.00000     -0.301140E-02
      9500 MEMB     77       PMPE     H6Y      HAL2     0.900000E-01   1.00800           0   0.00000     -0.301140E-02
      9501 MEMB     77       PMPE     C37      CTL2    -0.180000       12.0110           0   0.00000     -0.301140E-02
      9502 MEMB     77       PMPE     H7X      HAL2     0.900000E-01   1.00800           0   0.00000     -0.301140E-02
      9503 MEMB     77       PMPE     H7Y      HAL2     0.900000E-01   1.00800           0   0.00000     -0.301140E-02
      9504 MEMB     77       PMPE     C38      CTL2    -0.180000       12.0110           0   0.00000     -0.301140E-02
      9505 MEMB     77       PMPE     H8X      HAL2     0.900000E-01   1.00800           0   0.00000     -0.301140E-02
      9506 MEMB     77       PMPE     H8Y      HAL2     0.900000E-01   1.00800           0   0.00000     -0.301140E-02
      9507 MEMB     77       PMPE     C39      CTL2    -0.180000       12.0110           0   0.00000     -0.301140E-02
      9508 MEMB     77       PMPE     H9X      HAL2     0.900000E-01   1.00800           0   0.00000     -0.301140E-02
      9509 MEMB     77       PMPE     H9Y      HAL2     0.900000E-01   1.00800           0   0.00000     -0.301140E-02
      9510 MEMB     77       PMPE     C310     CTL2    -0.180000       12.0110           0   0.00000     -0.301140E-02
      9511 MEMB     77       PMPE     H10X     HAL2     0.900000E-01   1.00800           0   0.00000     -0.301140E-02
      9512 MEMB     77       PMPE     H10Y     HAL2     0.900000E-01   1.00800           0   0.00000     -0.301140E-02
      9513 MEMB     77       PMPE     C311     CTL2    -0.180000       12.0110           0   0.00000     -0.301140E-02
      9514 MEMB     77       PMPE     H11X     HAL2     0.900000E-01   1.00800           0   0.00000     -0.301140E-02
      9515 MEMB     77       PMPE     H11Y     HAL2     0.900000E-01   1.00800           0   0.00000     -0.301140E-02
      9516 MEMB     77       PMPE     C312     CTL2    -0.180000       12.0110           0   0.00000     -0.301140E-02
      9517 MEMB     77       PMPE     H12X     HAL2     0.900000E-01   1.00800           0   0.00000     -0.301140E-02
      9518 MEMB     77       PMPE     H12Y     HAL2     0.900000E-01   1.00800           0   0.00000     -0.301140E-02
      9519 MEMB     77       PMPE     C313     CTL2    -0.180000       12.0110           0   0.00000     -0.301140E-02
      9520 MEMB     77       PMPE     H13X     HAL2     0.900000E-01   1.00800           0   0.00000     -0.301140E-02
      9521 MEMB     77       PMPE     H13Y     HAL2     0.900000E-01   1.00800           0   0.00000     -0.301140E-02
      9522 MEMB     77       PMPE     C314     CTL2    -0.180000       12.0110           0   0.00000     -0.301140E-02
      9523 MEMB     77       PMPE     H14X     HAL2     0.900000E-01   1.00800           0   0.00000     -0.301140E-02
      9524 MEMB     77       PMPE     H14Y     HAL2     0.900000E-01   1.00800           0   0.00000     -0.301140E-02
      9525 MEMB     77       PMPE     C315     CTL2    -0.180000       12.0110           0   0.00000     -0.301140E-02
      9526 MEMB     77       PMPE     H15X     HAL2     0.900000E-01   1.00800           0   0.00000     -0.301140E-02
      9527 MEMB     77       PMPE     H15Y     HAL2     0.900000E-01   1.00800           0   0.00000     -0.301140E-02
      9528 MEMB     77       PMPE     C316     CTL3    -0.270000       12.0110           0   0.00000     -0.301140E-02
      9529 MEMB     77       PMPE     H16X     HAL3     0.900000E-01   1.00800           0   0.00000     -0.301140E-02
      9530 MEMB     77       PMPE     H16Y     HAL3     0.900000E-01   1.00800           0   0.00000     -0.301140E-02
      9531 MEMB     77       PMPE     H16Z     HAL3     0.900000E-01   1.00800           0   0.00000     -0.301140E-02
      9532 MEMB     78       POPE     N        NH3L    -0.300000       14.0070           0   0.00000     -0.301140E-02
      9533 MEMB     78       POPE     HN1      HCL      0.330000       1.00800           0   0.00000     -0.301140E-02
      9534 MEMB     78       POPE     HN2      HCL      0.330000       1.00800           0   0.00000     -0.301140E-02
      9535 MEMB     78       POPE     HN3      HCL      0.330000       1.00800           0   0.00000     -0.301140E-02
      9536 MEMB     78       POPE     C12      CTL2     0.130000       12.0110           0   0.00000     -0.301140E-02
      9537 MEMB     78       POPE     H12A     HAL2     0.900000E-01   1.00800           0   0.00000     -0.301140E-02
      9538 MEMB     78       POPE     H12B     HAL2     0.900000E-01   1.00800           0   0.00000     -0.301140E-02
      9539 MEMB     78       POPE     C11      CTL2    -0.800000E-01   12.0110           0   0.00000     -0.301140E-02
      9540 MEMB     78       POPE     H11A     HAL2     0.900000E-01   1.00800           0   0.00000     -0.301140E-02
      9541 MEMB     78       POPE     H11B     HAL2     0.900000E-01   1.00800           0   0.00000     -0.301140E-02
      9542 MEMB     78       POPE     P        PL        1.50000       30.9740           0   0.00000     -0.301140E-02
      9543 MEMB     78       POPE     O13      O2L     -0.780000       15.9994           0   0.00000     -0.301140E-02
      9544 MEMB     78       POPE     O14      O2L     -0.780000       15.9994           0   0.00000     -0.301140E-02
      9545 MEMB     78       POPE     O11      OSLP    -0.570000       15.9994           0   0.00000     -0.301140E-02
      9546 MEMB     78       POPE     O12      OSLP    -0.570000       15.9994           0   0.00000     -0.301140E-02
      9547 MEMB     78       POPE     C1       CTL2    -0.800000E-01   12.0110           0   0.00000     -0.301140E-02
      9548 MEMB     78       POPE     HA       HAL2     0.900000E-01   1.00800           0   0.00000     -0.301140E-02
      9549 MEMB     78       POPE     HB       HAL2     0.900000E-01   1.00800           0   0.00000     -0.301140E-02
      9550 MEMB     78       POPE     C2       CTL1     0.170000       12.0110           0   0.00000     -0.301140E-02
      9551 MEMB     78       POPE     HS       HAL1     0.900000E-01   1.00800           0   0.00000     -0.301140E-02
      9552 MEMB     78       POPE     O21      OSL     -0.490000       15.9994           0   0.00000     -0.301140E-02
      9553 MEMB     78       POPE     C21      CL       0.900000       12.0110           0   0.00000     -0.301140E-02
      9554 MEMB     78       POPE     O22      OBL     -0.630000       15.9994           0   0.00000     -0.301140E-02
      9555 MEMB     78       POPE     C22      CTL2    -0.220000       12.0110           0   0.00000     -0.301140E-02
      9556 MEMB     78       POPE     H2R      HAL2     0.900000E-01   1.00800           0   0.00000     -0.301140E-02
      9557 MEMB     78       POPE     H2S      HAL2     0.900000E-01   1.00800           0   0.00000     -0.301140E-02
      9558 MEMB     78       POPE     C3       CTL2     0.800000E-01   12.0110           0   0.00000     -0.301140E-02
      9559 MEMB     78       POPE     HX       HAL2     0.900000E-01   1.00800           0   0.00000     -0.301140E-02
      9560 MEMB     78       POPE     HY       HAL2     0.900000E-01   1.00800           0   0.00000     -0.301140E-02
      9561 MEMB     78       POPE     O31      OSL     -0.490000       15.9994           0   0.00000     -0.301140E-02
      9562 MEMB     78       POPE     C31      CL       0.900000       12.0110           0   0.00000     -0.301140E-02
      9563 MEMB     78       POPE     O32      OBL     -0.630000       15.9994           0   0.00000     -0.301140E-02
      9564 MEMB     78       POPE     C32      CTL2    -0.220000       12.0110           0   0.00000     -0.301140E-02
      9565 MEMB     78       POPE     H2X      HAL2     0.900000E-01   1.00800           0   0.00000     -0.301140E-02
      9566 MEMB     78       POPE     H2Y      HAL2     0.900000E-01   1.00800           0   0.00000     -0.301140E-02
      9567 MEMB     78       POPE     C23      CTL2    -0.180000       12.0110           0   0.00000     -0.301140E-02
      9568 MEMB     78       POPE     H3R      HAL2     0.900000E-01   1.00800           0   0.00000     -0.301140E-02
      9569 MEMB     78       POPE     H3S      HAL2     0.900000E-01   1.00800           0   0.00000     -0.301140E-02
      9570 MEMB     78       POPE     C24      CTL2    -0.180000       12.0110           0   0.00000     -0.301140E-02
      9571 MEMB     78       POPE     H4R      HAL2     0.900000E-01   1.00800           0   0.00000     -0.301140E-02
      9572 MEMB     78       POPE     H4S      HAL2     0.900000E-01   1.00800           0   0.00000     -0.301140E-02
      9573 MEMB     78       POPE     C25      CTL2    -0.180000       12.0110           0   0.00000     -0.301140E-02
      9574 MEMB     78       POPE     H5R      HAL2     0.900000E-01   1.00800           0   0.00000     -0.301140E-02
      9575 MEMB     78       POPE     H5S      HAL2     0.900000E-01   1.00800           0   0.00000     -0.301140E-02
      9576 MEMB     78       POPE     C26      CTL2    -0.180000       12.0110           0   0.00000     -0.301140E-02
      9577 MEMB     78       POPE     H6R      HAL2     0.900000E-01   1.00800           0   0.00000     -0.301140E-02
      9578 MEMB     78       POPE     H6S      HAL2     0.900000E-01   1.00800           0   0.00000     -0.301140E-02
      9579 MEMB     78       POPE     C27      CTL2    -0.180000       12.0110           0   0.00000     -0.301140E-02
      9580 MEMB     78       POPE     H7R      HAL2     0.900000E-01   1.00800           0   0.00000     -0.301140E-02
      9581 MEMB     78       POPE     H7S      HAL2     0.900000E-01   1.00800           0   0.00000     -0.301140E-02
      9582 MEMB     78       POPE     C28      CTL2    -0.180000       12.0110           0   0.00000     -0.301140E-02
      9583 MEMB     78       POPE     H8R      HAL2     0.900000E-01   1.00800           0   0.00000     -0.301140E-02
      9584 MEMB     78       POPE     H8S      HAL2     0.900000E-01   1.00800           0   0.00000     -0.301140E-02
      9585 MEMB     78       POPE     C29      CEL1    -0.150000       12.0110           0   0.00000     -0.301140E-02
      9586 MEMB     78       POPE     H91      HEL1     0.150000       1.00800           0   0.00000     -0.301140E-02
      9587 MEMB     78       POPE     C210     CEL1    -0.150000       12.0110           0   0.00000     -0.301140E-02
      9588 MEMB     78       POPE     H101     HEL1     0.150000       1.00800           0   0.00000     -0.301140E-02
      9589 MEMB     78       POPE     C211     CTL2    -0.180000       12.0110           0   0.00000     -0.301140E-02
      9590 MEMB     78       POPE     H11R     HAL2     0.900000E-01   1.00800           0   0.00000     -0.301140E-02
      9591 MEMB     78       POPE     H11S     HAL2     0.900000E-01   1.00800           0   0.00000     -0.301140E-02
      9592 MEMB     78       POPE     C212     CTL2    -0.180000       12.0110           0   0.00000     -0.301140E-02
      9593 MEMB     78       POPE     H12R     HAL2     0.900000E-01   1.00800           0   0.00000     -0.301140E-02
      9594 MEMB     78       POPE     H12S     HAL2     0.900000E-01   1.00800           0   0.00000     -0.301140E-02
      9595 MEMB     78       POPE     C213     CTL2    -0.180000       12.0110           0   0.00000     -0.301140E-02
      9596 MEMB     78       POPE     H13R     HAL2     0.900000E-01   1.00800           0   0.00000     -0.301140E-02
      9597 MEMB     78       POPE     H13S     HAL2     0.900000E-01   1.00800           0   0.00000     -0.301140E-02
      9598 MEMB     78       POPE     C214     CTL2    -0.180000       12.0110           0   0.00000     -0.301140E-02
      9599 MEMB     78       POPE     H14R     HAL2     0.900000E-01   1.00800           0   0.00000     -0.301140E-02
      9600 MEMB     78       POPE     H14S     HAL2     0.900000E-01   1.00800           0   0.00000     -0.301140E-02
      9601 MEMB     78       POPE     C215     CTL2    -0.180000       12.0110           0   0.00000     -0.301140E-02
      9602 MEMB     78       POPE     H15R     HAL2     0.900000E-01   1.00800           0   0.00000     -0.301140E-02
      9603 MEMB     78       POPE     H15S     HAL2     0.900000E-01   1.00800           0   0.00000     -0.301140E-02
      9604 MEMB     78       POPE     C216     CTL2    -0.180000       12.0110           0   0.00000     -0.301140E-02
      9605 MEMB     78       POPE     H16R     HAL2     0.900000E-01   1.00800           0   0.00000     -0.301140E-02
      9606 MEMB     78       POPE     H16S     HAL2     0.900000E-01   1.00800           0   0.00000     -0.301140E-02
      9607 MEMB     78       POPE     C217     CTL2    -0.180000       12.0110           0   0.00000     -0.301140E-02
      9608 MEMB     78       POPE     H17R     HAL2     0.900000E-01   1.00800           0   0.00000     -0.301140E-02
      9609 MEMB     78       POPE     H17S     HAL2     0.900000E-01   1.00800           0   0.00000     -0.301140E-02
      9610 MEMB     78       POPE     C218     CTL3    -0.270000       12.0110           0   0.00000     -0.301140E-02
      9611 MEMB     78       POPE     H18R     HAL3     0.900000E-01   1.00800           0   0.00000     -0.301140E-02
      9612 MEMB     78       POPE     H18S     HAL3     0.900000E-01   1.00800           0   0.00000     -0.301140E-02
      9613 MEMB     78       POPE     H18T     HAL3     0.900000E-01   1.00800           0   0.00000     -0.301140E-02
      9614 MEMB     78       POPE     C33      CTL2    -0.180000       12.0110           0   0.00000     -0.301140E-02
      9615 MEMB     78       POPE     H3X      HAL2     0.900000E-01   1.00800           0   0.00000     -0.301140E-02
      9616 MEMB     78       POPE     H3Y      HAL2     0.900000E-01   1.00800           0   0.00000     -0.301140E-02
      9617 MEMB     78       POPE     C34      CTL2    -0.180000       12.0110           0   0.00000     -0.301140E-02
      9618 MEMB     78       POPE     H4X      HAL2     0.900000E-01   1.00800           0   0.00000     -0.301140E-02
      9619 MEMB     78       POPE     H4Y      HAL2     0.900000E-01   1.00800           0   0.00000     -0.301140E-02
      9620 MEMB     78       POPE     C35      CTL2    -0.180000       12.0110           0   0.00000     -0.301140E-02
      9621 MEMB     78       POPE     H5X      HAL2     0.900000E-01   1.00800           0   0.00000     -0.301140E-02
      9622 MEMB     78       POPE     H5Y      HAL2     0.900000E-01   1.00800           0   0.00000     -0.301140E-02
      9623 MEMB     78       POPE     C36      CTL2    -0.180000       12.0110           0   0.00000     -0.301140E-02
      9624 MEMB     78       POPE     H6X      HAL2     0.900000E-01   1.00800           0   0.00000     -0.301140E-02
      9625 MEMB     78       POPE     H6Y      HAL2     0.900000E-01   1.00800           0   0.00000     -0.301140E-02
      9626 MEMB     78       POPE     C37      CTL2    -0.180000       12.0110           0   0.00000     -0.301140E-02
      9627 MEMB     78       POPE     H7X      HAL2     0.900000E-01   1.00800           0   0.00000     -0.301140E-02
      9628 MEMB     78       POPE     H7Y      HAL2     0.900000E-01   1.00800           0   0.00000     -0.301140E-02
      9629 MEMB     78       POPE     C38      CTL2    -0.180000       12.0110           0   0.00000     -0.301140E-02
      9630 MEMB     78       POPE     H8X      HAL2     0.900000E-01   1.00800           0   0.00000     -0.301140E-02
      9631 MEMB     78       POPE     H8Y      HAL2     0.900000E-01   1.00800           0   0.00000     -0.301140E-02
      9632 MEMB     78       POPE     C39      CTL2    -0.180000       12.0110           0   0.00000     -0.301140E-02
      9633 MEMB     78       POPE     H9X      HAL2     0.900000E-01   1.00800           0   0.00000     -0.301140E-02
      9634 MEMB     78       POPE     H9Y      HAL2     0.900000E-01   1.00800           0   0.00000     -0.301140E-02
      9635 MEMB     78       POPE     C310     CTL2    -0.180000       12.0110           0   0.00000     -0.301140E-02
      9636 MEMB     78       POPE     H10X     HAL2     0.900000E-01   1.00800           0   0.00000     -0.301140E-02
      9637 MEMB     78       POPE     H10Y     HAL2     0.900000E-01   1.00800           0   0.00000     -0.301140E-02
      9638 MEMB     78       POPE     C311     CTL2    -0.180000       12.0110           0   0.00000     -0.301140E-02
      9639 MEMB     78       POPE     H11X     HAL2     0.900000E-01   1.00800           0   0.00000     -0.301140E-02
      9640 MEMB     78       POPE     H11Y     HAL2     0.900000E-01   1.00800           0   0.00000     -0.301140E-02
      9641 MEMB     78       POPE     C312     CTL2    -0.180000       12.0110           0   0.00000     -0.301140E-02
      9642 MEMB     78       POPE     H12X     HAL2     0.900000E-01   1.00800           0   0.00000     -0.301140E-02
      9643 MEMB     78       POPE     H12Y     HAL2     0.900000E-01   1.00800           0   0.00000     -0.301140E-02
      9644 MEMB     78       POPE     C313     CTL2    -0.180000       12.0110           0   0.00000     -0.301140E-02
      9645 MEMB     78       POPE     H13X     HAL2     0.900000E-01   1.00800           0   0.00000     -0.301140E-02
      9646 MEMB     78       POPE     H13Y     HAL2     0.900000E-01   1.00800           0   0.00000     -0.301140E-02
      9647 MEMB     78       POPE     C314     CTL2    -0.180000       12.0110           0   0.00000     -0.301140E-02
      9648 MEMB     78       POPE     H14X     HAL2     0.900000E-01   1.00800           0   0.00000     -0.301140E-02
      9649 MEMB     78       POPE     H14Y     HAL2     0.900000E-01   1.00800           0   0.00000     -0.301140E-02
      9650 MEMB     78       POPE     C315     CTL2    -0.180000       12.0110           0   0.00000     -0.301140E-02
      9651 MEMB     78       POPE     H15X     HAL2     0.900000E-01   1.00800           0   0.00000     -0.301140E-02
      9652 MEMB     78       POPE     H15Y     HAL2     0.900000E-01   1.00800           0   0.00000     -0.301140E-02
      9653 MEMB     78       POPE     C316     CTL3    -0.270000       12.0110           0   0.00000     -0.301140E-02
      9654 MEMB     78       POPE     H16X     HAL3     0.900000E-01   1.00800           0   0.00000     -0.301140E-02
      9655 MEMB     78       POPE     H16Y     HAL3     0.900000E-01   1.00800           0   0.00000     -0.301140E-02
      9656 MEMB     78       POPE     H16Z     HAL3     0.900000E-01   1.00800           0   0.00000     -0.301140E-02
      9657 MEMB     79       QMPE     N        NH3L    -0.300000       14.0070           0   0.00000     -0.301140E-02
      9658 MEMB     79       QMPE     HN1      HCL      0.330000       1.00800           0   0.00000     -0.301140E-02
      9659 MEMB     79       QMPE     HN2      HCL      0.330000       1.00800           0   0.00000     -0.301140E-02
      9660 MEMB     79       QMPE     HN3      HCL      0.330000       1.00800           0   0.00000     -0.301140E-02
      9661 MEMB     79       QMPE     C12      CTL2     0.130000       12.0110           0   0.00000     -0.301140E-02
      9662 MEMB     79       QMPE     H12A     HAL2     0.900000E-01   1.00800           0   0.00000     -0.301140E-02
      9663 MEMB     79       QMPE     H12B     HAL2     0.900000E-01   1.00800           0   0.00000     -0.301140E-02
      9664 MEMB     79       QMPE     C11      CTL2    -0.800000E-01   12.0110           0   0.00000     -0.301140E-02
      9665 MEMB     79       QMPE     H11A     HAL2     0.900000E-01   1.00800           0   0.00000     -0.301140E-02
      9666 MEMB     79       QMPE     H11B     HAL2     0.900000E-01   1.00800           0   0.00000     -0.301140E-02
      9667 MEMB     79       QMPE     P        PL        1.50000       30.9740           0   0.00000     -0.301140E-02
      9668 MEMB     79       QMPE     O13      O2L     -0.780000       15.9994           0   0.00000     -0.301140E-02
      9669 MEMB     79       QMPE     O14      O2L     -0.780000       15.9994           0   0.00000     -0.301140E-02
      9670 MEMB     79       QMPE     O11      OSLP    -0.570000       15.9994           0   0.00000     -0.301140E-02
      9671 MEMB     79       QMPE     O12      OSLP    -0.570000       15.9994           0   0.00000     -0.301140E-02
      9672 MEMB     79       QMPE     C1       CTL2    -0.800000E-01   12.0110           0   0.00000     -0.301140E-02
      9673 MEMB     79       QMPE     HA       HAL2     0.900000E-01   1.00800           0   0.00000     -0.301140E-02
      9674 MEMB     79       QMPE     HB       HAL2     0.900000E-01   1.00800           0   0.00000     -0.301140E-02
      9675 MEMB     79       QMPE     C2       CTL1     0.170000       12.0110           0   0.00000     -0.301140E-02
      9676 MEMB     79       QMPE     HS       HAL1     0.900000E-01   1.00800           0   0.00000     -0.301140E-02
      9677 MEMB     79       QMPE     O21      OSL     -0.490000       15.9994           0   0.00000     -0.301140E-02
      9678 MEMB     79       QMPE     C21      CL       0.900000       12.0110           0   0.00000     -0.301140E-02
      9679 MEMB     79       QMPE     O22      OBL     -0.630000       15.9994           0   0.00000     -0.301140E-02
      9680 MEMB     79       QMPE     C22      CTL2    -0.220000       12.0110           0   0.00000     -0.301140E-02
      9681 MEMB     79       QMPE     H2R      HAL2     0.900000E-01   1.00800           0   0.00000     -0.301140E-02
      9682 MEMB     79       QMPE     H2S      HAL2     0.900000E-01   1.00800           0   0.00000     -0.301140E-02
      9683 MEMB     79       QMPE     C3       CTL2     0.800000E-01   12.0110           0   0.00000     -0.301140E-02
      9684 MEMB     79       QMPE     HX       HAL2     0.900000E-01   1.00800           0   0.00000     -0.301140E-02
      9685 MEMB     79       QMPE     HY       HAL2     0.900000E-01   1.00800           0   0.00000     -0.301140E-02
      9686 MEMB     79       QMPE     O31      OSL     -0.490000       15.9994           0   0.00000     -0.301140E-02
      9687 MEMB     79       QMPE     C31      CL       0.900000       12.0110           0   0.00000     -0.301140E-02
      9688 MEMB     79       QMPE     O32      OBL     -0.630000       15.9994           0   0.00000     -0.301140E-02
      9689 MEMB     79       QMPE     C32      CTL2    -0.220000       12.0110           0   0.00000     -0.301140E-02
      9690 MEMB     79       QMPE     H2X      HAL2     0.900000E-01   1.00800           0   0.00000     -0.301140E-02
      9691 MEMB     79       QMPE     H2Y      HAL2     0.900000E-01   1.00800           0   0.00000     -0.301140E-02
      9692 MEMB     79       QMPE     C23      CTL2    -0.180000       12.0110           0   0.00000     -0.301140E-02
      9693 MEMB     79       QMPE     H3R      HAL2     0.900000E-01   1.00800           0   0.00000     -0.301140E-02
      9694 MEMB     79       QMPE     H3S      HAL2     0.900000E-01   1.00800           0   0.00000     -0.301140E-02
      9695 MEMB     79       QMPE     C24      CTL2    -0.180000       12.0110           0   0.00000     -0.301140E-02
      9696 MEMB     79       QMPE     H4R      HAL2     0.900000E-01   1.00800           0   0.00000     -0.301140E-02
      9697 MEMB     79       QMPE     H4S      HAL2     0.900000E-01   1.00800           0   0.00000     -0.301140E-02
      9698 MEMB     79       QMPE     C25      CTL2    -0.180000       12.0110           0   0.00000     -0.301140E-02
      9699 MEMB     79       QMPE     H5R      HAL2     0.900000E-01   1.00800           0   0.00000     -0.301140E-02
      9700 MEMB     79       QMPE     H5S      HAL2     0.900000E-01   1.00800           0   0.00000     -0.301140E-02
      9701 MEMB     79       QMPE     C26      CTL2    -0.180000       12.0110           0   0.00000     -0.301140E-02
      9702 MEMB     79       QMPE     H6R      HAL2     0.900000E-01   1.00800           0   0.00000     -0.301140E-02
      9703 MEMB     79       QMPE     H6S      HAL2     0.900000E-01   1.00800           0   0.00000     -0.301140E-02
      9704 MEMB     79       QMPE     C27      CTL2    -0.180000       12.0110           0   0.00000     -0.301140E-02
      9705 MEMB     79       QMPE     H7R      HAL2     0.900000E-01   1.00800           0   0.00000     -0.301140E-02
      9706 MEMB     79       QMPE     H7S      HAL2     0.900000E-01   1.00800           0   0.00000     -0.301140E-02
      9707 MEMB     79       QMPE     C28      CTL2    -0.180000       12.0110           0   0.00000     -0.301140E-02
      9708 MEMB     79       QMPE     H8R      HAL2     0.900000E-01   1.00800           0   0.00000     -0.301140E-02
      9709 MEMB     79       QMPE     H8S      HAL2     0.900000E-01   1.00800           0   0.00000     -0.301140E-02
      9710 MEMB     79       QMPE     C29      CG3RC1  -0.900000E-01   12.0110           0   0.00000     -0.301140E-02
      9711 MEMB     79       QMPE     H9R      HGA1     0.900000E-01   1.00800           0   0.00000     -0.301140E-02
      9712 MEMB     79       QMPE     C217     CG3C31  -0.180000       12.0110           0   0.00000     -0.301140E-02
      9713 MEMB     79       QMPE     H17R     HGA2     0.900000E-01   1.00800           0   0.00000     -0.301140E-02
      9714 MEMB     79       QMPE     H17S     HGA2     0.900000E-01   1.00800           0   0.00000     -0.301140E-02
      9715 MEMB     79       QMPE     C210     CG3RC1  -0.900000E-01   12.0110           0   0.00000     -0.301140E-02
      9716 MEMB     79       QMPE     H10R     HGA1     0.900000E-01   1.00800           0   0.00000     -0.301140E-02
      9717 MEMB     79       QMPE     C211     CTL2    -0.180000       12.0110           0   0.00000     -0.301140E-02
      9718 MEMB     79       QMPE     H11R     HAL2     0.900000E-01   1.00800           0   0.00000     -0.301140E-02
      9719 MEMB     79       QMPE     H11S     HAL2     0.900000E-01   1.00800           0   0.00000     -0.301140E-02
      9720 MEMB     79       QMPE     C212     CTL2    -0.180000       12.0110           0   0.00000     -0.301140E-02
      9721 MEMB     79       QMPE     H12R     HAL2     0.900000E-01   1.00800           0   0.00000     -0.301140E-02
      9722 MEMB     79       QMPE     H12S     HAL2     0.900000E-01   1.00800           0   0.00000     -0.301140E-02
      9723 MEMB     79       QMPE     C213     CTL2    -0.180000       12.0110           0   0.00000     -0.301140E-02
      9724 MEMB     79       QMPE     H13R     HAL2     0.900000E-01   1.00800           0   0.00000     -0.301140E-02
      9725 MEMB     79       QMPE     H13S     HAL2     0.900000E-01   1.00800           0   0.00000     -0.301140E-02
      9726 MEMB     79       QMPE     C214     CTL2    -0.180000       12.0110           0   0.00000     -0.301140E-02
      9727 MEMB     79       QMPE     H14R     HAL2     0.900000E-01   1.00800           0   0.00000     -0.301140E-02
      9728 MEMB     79       QMPE     H14S     HAL2     0.900000E-01   1.00800           0   0.00000     -0.301140E-02
      9729 MEMB     79       QMPE     C215     CTL2    -0.180000       12.0110           0   0.00000     -0.301140E-02
      9730 MEMB     79       QMPE     H15R     HAL2     0.900000E-01   1.00800           0   0.00000     -0.301140E-02
      9731 MEMB     79       QMPE     H15S     HAL2     0.900000E-01   1.00800           0   0.00000     -0.301140E-02
      9732 MEMB     79       QMPE     C216     CTL3    -0.270000       12.0110           0   0.00000     -0.301140E-02
      9733 MEMB     79       QMPE     H16R     HAL3     0.900000E-01   1.00800           0   0.00000     -0.301140E-02
      9734 MEMB     79       QMPE     H16S     HAL3     0.900000E-01   1.00800           0   0.00000     -0.301140E-02
      9735 MEMB     79       QMPE     H16T     HAL3     0.900000E-01   1.00800           0   0.00000     -0.301140E-02
      9736 MEMB     79       QMPE     C33      CTL2    -0.180000       12.0110           0   0.00000     -0.301140E-02
      9737 MEMB     79       QMPE     H3X      HAL2     0.900000E-01   1.00800           0   0.00000     -0.301140E-02
      9738 MEMB     79       QMPE     H3Y      HAL2     0.900000E-01   1.00800           0   0.00000     -0.301140E-02
      9739 MEMB     79       QMPE     C34      CTL2    -0.180000       12.0110           0   0.00000     -0.301140E-02
      9740 MEMB     79       QMPE     H4X      HAL2     0.900000E-01   1.00800           0   0.00000     -0.301140E-02
      9741 MEMB     79       QMPE     H4Y      HAL2     0.900000E-01   1.00800           0   0.00000     -0.301140E-02
      9742 MEMB     79       QMPE     C35      CTL2    -0.180000       12.0110           0   0.00000     -0.301140E-02
      9743 MEMB     79       QMPE     H5X      HAL2     0.900000E-01   1.00800           0   0.00000     -0.301140E-02
      9744 MEMB     79       QMPE     H5Y      HAL2     0.900000E-01   1.00800           0   0.00000     -0.301140E-02
      9745 MEMB     79       QMPE     C36      CTL2    -0.180000       12.0110           0   0.00000     -0.301140E-02
      9746 MEMB     79       QMPE     H6X      HAL2     0.900000E-01   1.00800           0   0.00000     -0.301140E-02
      9747 MEMB     79       QMPE     H6Y      HAL2     0.900000E-01   1.00800           0   0.00000     -0.301140E-02
      9748 MEMB     79       QMPE     C37      CTL2    -0.180000       12.0110           0   0.00000     -0.301140E-02
      9749 MEMB     79       QMPE     H7X      HAL2     0.900000E-01   1.00800           0   0.00000     -0.301140E-02
      9750 MEMB     79       QMPE     H7Y      HAL2     0.900000E-01   1.00800           0   0.00000     -0.301140E-02
      9751 MEMB     79       QMPE     C38      CTL2    -0.180000       12.0110           0   0.00000     -0.301140E-02
      9752 MEMB     79       QMPE     H8X      HAL2     0.900000E-01   1.00800           0   0.00000     -0.301140E-02
      9753 MEMB     79       QMPE     H8Y      HAL2     0.900000E-01   1.00800           0   0.00000     -0.301140E-02
      9754 MEMB     79       QMPE     C39      CTL2    -0.180000       12.0110           0   0.00000     -0.301140E-02
      9755 MEMB     79       QMPE     H9X      HAL2     0.900000E-01   1.00800           0   0.00000     -0.301140E-02
      9756 MEMB     79       QMPE     H9Y      HAL2     0.900000E-01   1.00800           0   0.00000     -0.301140E-02
      9757 MEMB     79       QMPE     C310     CTL2    -0.180000       12.0110           0   0.00000     -0.301140E-02
      9758 MEMB     79       QMPE     H10X     HAL2     0.900000E-01   1.00800           0   0.00000     -0.301140E-02
      9759 MEMB     79       QMPE     H10Y     HAL2     0.900000E-01   1.00800           0   0.00000     -0.301140E-02
      9760 MEMB     79       QMPE     C311     CTL2    -0.180000       12.0110           0   0.00000     -0.301140E-02
      9761 MEMB     79       QMPE     H11X     HAL2     0.900000E-01   1.00800           0   0.00000     -0.301140E-02
      9762 MEMB     79       QMPE     H11Y     HAL2     0.900000E-01   1.00800           0   0.00000     -0.301140E-02
      9763 MEMB     79       QMPE     C312     CTL2    -0.180000       12.0110           0   0.00000     -0.301140E-02
      9764 MEMB     79       QMPE     H12X     HAL2     0.900000E-01   1.00800           0   0.00000     -0.301140E-02
      9765 MEMB     79       QMPE     H12Y     HAL2     0.900000E-01   1.00800           0   0.00000     -0.301140E-02
      9766 MEMB     79       QMPE     C313     CTL2    -0.180000       12.0110           0   0.00000     -0.301140E-02
      9767 MEMB     79       QMPE     H13X     HAL2     0.900000E-01   1.00800           0   0.00000     -0.301140E-02
      9768 MEMB     79       QMPE     H13Y     HAL2     0.900000E-01   1.00800           0   0.00000     -0.301140E-02
      9769 MEMB     79       QMPE     C314     CTL2    -0.180000       12.0110           0   0.00000     -0.301140E-02
      9770 MEMB     79       QMPE     H14X     HAL2     0.900000E-01   1.00800           0   0.00000     -0.301140E-02
      9771 MEMB     79       QMPE     H14Y     HAL2     0.900000E-01   1.00800           0   0.00000     -0.301140E-02
      9772 MEMB     79       QMPE     C315     CTL3    -0.270000       12.0110           0   0.00000     -0.301140E-02
      9773 MEMB     79       QMPE     H15X     HAL3     0.900000E-01   1.00800           0   0.00000     -0.301140E-02
      9774 MEMB     79       QMPE     H15Y     HAL3     0.900000E-01   1.00800           0   0.00000     -0.301140E-02
      9775 MEMB     79       QMPE     H15Z     HAL3     0.900000E-01   1.00800           0   0.00000     -0.301140E-02
      9776 MEMB     80       PMPE     N        NH3L    -0.300000       14.0070           0   0.00000     -0.301140E-02
      9777 MEMB     80       PMPE     HN1      HCL      0.330000       1.00800           0   0.00000     -0.301140E-02
      9778 MEMB     80       PMPE     HN2      HCL      0.330000       1.00800           0   0.00000     -0.301140E-02
      9779 MEMB     80       PMPE     HN3      HCL      0.330000       1.00800           0   0.00000     -0.301140E-02
      9780 MEMB     80       PMPE     C12      CTL2     0.130000       12.0110           0   0.00000     -0.301140E-02
      9781 MEMB     80       PMPE     H12A     HAL2     0.900000E-01   1.00800           0   0.00000     -0.301140E-02
      9782 MEMB     80       PMPE     H12B     HAL2     0.900000E-01   1.00800           0   0.00000     -0.301140E-02
      9783 MEMB     80       PMPE     C11      CTL2    -0.800000E-01   12.0110           0   0.00000     -0.301140E-02
      9784 MEMB     80       PMPE     H11A     HAL2     0.900000E-01   1.00800           0   0.00000     -0.301140E-02
      9785 MEMB     80       PMPE     H11B     HAL2     0.900000E-01   1.00800           0   0.00000     -0.301140E-02
      9786 MEMB     80       PMPE     P        PL        1.50000       30.9740           0   0.00000     -0.301140E-02
      9787 MEMB     80       PMPE     O13      O2L     -0.780000       15.9994           0   0.00000     -0.301140E-02
      9788 MEMB     80       PMPE     O14      O2L     -0.780000       15.9994           0   0.00000     -0.301140E-02
      9789 MEMB     80       PMPE     O11      OSLP    -0.570000       15.9994           0   0.00000     -0.301140E-02
      9790 MEMB     80       PMPE     O12      OSLP    -0.570000       15.9994           0   0.00000     -0.301140E-02
      9791 MEMB     80       PMPE     C1       CTL2    -0.800000E-01   12.0110           0   0.00000     -0.301140E-02
      9792 MEMB     80       PMPE     HA       HAL2     0.900000E-01   1.00800           0   0.00000     -0.301140E-02
      9793 MEMB     80       PMPE     HB       HAL2     0.900000E-01   1.00800           0   0.00000     -0.301140E-02
      9794 MEMB     80       PMPE     C2       CTL1     0.170000       12.0110           0   0.00000     -0.301140E-02
      9795 MEMB     80       PMPE     HS       HAL1     0.900000E-01   1.00800           0   0.00000     -0.301140E-02
      9796 MEMB     80       PMPE     O21      OSL     -0.490000       15.9994           0   0.00000     -0.301140E-02
      9797 MEMB     80       PMPE     C21      CL       0.900000       12.0110           0   0.00000     -0.301140E-02
      9798 MEMB     80       PMPE     O22      OBL     -0.630000       15.9994           0   0.00000     -0.301140E-02
      9799 MEMB     80       PMPE     C22      CTL2    -0.220000       12.0110           0   0.00000     -0.301140E-02
      9800 MEMB     80       PMPE     H2R      HAL2     0.900000E-01   1.00800           0   0.00000     -0.301140E-02
      9801 MEMB     80       PMPE     H2S      HAL2     0.900000E-01   1.00800           0   0.00000     -0.301140E-02
      9802 MEMB     80       PMPE     C3       CTL2     0.800000E-01   12.0110           0   0.00000     -0.301140E-02
      9803 MEMB     80       PMPE     HX       HAL2     0.900000E-01   1.00800           0   0.00000     -0.301140E-02
      9804 MEMB     80       PMPE     HY       HAL2     0.900000E-01   1.00800           0   0.00000     -0.301140E-02
      9805 MEMB     80       PMPE     O31      OSL     -0.490000       15.9994           0   0.00000     -0.301140E-02
      9806 MEMB     80       PMPE     C31      CL       0.900000       12.0110           0   0.00000     -0.301140E-02
      9807 MEMB     80       PMPE     O32      OBL     -0.630000       15.9994           0   0.00000     -0.301140E-02
      9808 MEMB     80       PMPE     C32      CTL2    -0.220000       12.0110           0   0.00000     -0.301140E-02
      9809 MEMB     80       PMPE     H2X      HAL2     0.900000E-01   1.00800           0   0.00000     -0.301140E-02
      9810 MEMB     80       PMPE     H2Y      HAL2     0.900000E-01   1.00800           0   0.00000     -0.301140E-02
      9811 MEMB     80       PMPE     C23      CTL2    -0.180000       12.0110           0   0.00000     -0.301140E-02
      9812 MEMB     80       PMPE     H3R      HAL2     0.900000E-01   1.00800           0   0.00000     -0.301140E-02
      9813 MEMB     80       PMPE     H3S      HAL2     0.900000E-01   1.00800           0   0.00000     -0.301140E-02
      9814 MEMB     80       PMPE     C24      CTL2    -0.180000       12.0110           0   0.00000     -0.301140E-02
      9815 MEMB     80       PMPE     H4R      HAL2     0.900000E-01   1.00800           0   0.00000     -0.301140E-02
      9816 MEMB     80       PMPE     H4S      HAL2     0.900000E-01   1.00800           0   0.00000     -0.301140E-02
      9817 MEMB     80       PMPE     C25      CTL2    -0.180000       12.0110           0   0.00000     -0.301140E-02
      9818 MEMB     80       PMPE     H5R      HAL2     0.900000E-01   1.00800           0   0.00000     -0.301140E-02
      9819 MEMB     80       PMPE     H5S      HAL2     0.900000E-01   1.00800           0   0.00000     -0.301140E-02
      9820 MEMB     80       PMPE     C26      CTL2    -0.180000       12.0110           0   0.00000     -0.301140E-02
      9821 MEMB     80       PMPE     H6R      HAL2     0.900000E-01   1.00800           0   0.00000     -0.301140E-02
      9822 MEMB     80       PMPE     H6S      HAL2     0.900000E-01   1.00800           0   0.00000     -0.301140E-02
      9823 MEMB     80       PMPE     C27      CTL2    -0.180000       12.0110           0   0.00000     -0.301140E-02
      9824 MEMB     80       PMPE     H7R      HAL2     0.900000E-01   1.00800           0   0.00000     -0.301140E-02
      9825 MEMB     80       PMPE     H7S      HAL2     0.900000E-01   1.00800           0   0.00000     -0.301140E-02
      9826 MEMB     80       PMPE     C28      CTL2    -0.180000       12.0110           0   0.00000     -0.301140E-02
      9827 MEMB     80       PMPE     H8R      HAL2     0.900000E-01   1.00800           0   0.00000     -0.301140E-02
      9828 MEMB     80       PMPE     H8S      HAL2     0.900000E-01   1.00800           0   0.00000     -0.301140E-02
      9829 MEMB     80       PMPE     C29      CG3RC1  -0.900000E-01   12.0110           0   0.00000     -0.301140E-02
      9830 MEMB     80       PMPE     H9R      HGA1     0.900000E-01   1.00800           0   0.00000     -0.301140E-02
      9831 MEMB     80       PMPE     C217     CG3C31  -0.180000       12.0110           0   0.00000     -0.301140E-02
      9832 MEMB     80       PMPE     H17R     HGA2     0.900000E-01   1.00800           0   0.00000     -0.301140E-02
      9833 MEMB     80       PMPE     H17S     HGA2     0.900000E-01   1.00800           0   0.00000     -0.301140E-02
      9834 MEMB     80       PMPE     C210     CG3RC1  -0.900000E-01   12.0110           0   0.00000     -0.301140E-02
      9835 MEMB     80       PMPE     H10R     HGA1     0.900000E-01   1.00800           0   0.00000     -0.301140E-02
      9836 MEMB     80       PMPE     C211     CTL2    -0.180000       12.0110           0   0.00000     -0.301140E-02
      9837 MEMB     80       PMPE     H11R     HAL2     0.900000E-01   1.00800           0   0.00000     -0.301140E-02
      9838 MEMB     80       PMPE     H11S     HAL2     0.900000E-01   1.00800           0   0.00000     -0.301140E-02
      9839 MEMB     80       PMPE     C212     CTL2    -0.180000       12.0110           0   0.00000     -0.301140E-02
      9840 MEMB     80       PMPE     H12R     HAL2     0.900000E-01   1.00800           0   0.00000     -0.301140E-02
      9841 MEMB     80       PMPE     H12S     HAL2     0.900000E-01   1.00800           0   0.00000     -0.301140E-02
      9842 MEMB     80       PMPE     C213     CTL2    -0.180000       12.0110           0   0.00000     -0.301140E-02
      9843 MEMB     80       PMPE     H13R     HAL2     0.900000E-01   1.00800           0   0.00000     -0.301140E-02
      9844 MEMB     80       PMPE     H13S     HAL2     0.900000E-01   1.00800           0   0.00000     -0.301140E-02
      9845 MEMB     80       PMPE     C214     CTL2    -0.180000       12.0110           0   0.00000     -0.301140E-02
      9846 MEMB     80       PMPE     H14R     HAL2     0.900000E-01   1.00800           0   0.00000     -0.301140E-02
      9847 MEMB     80       PMPE     H14S     HAL2     0.900000E-01   1.00800           0   0.00000     -0.301140E-02
      9848 MEMB     80       PMPE     C215     CTL2    -0.180000       12.0110           0   0.00000     -0.301140E-02
      9849 MEMB     80       PMPE     H15R     HAL2     0.900000E-01   1.00800           0   0.00000     -0.301140E-02
      9850 MEMB     80       PMPE     H15S     HAL2     0.900000E-01   1.00800           0   0.00000     -0.301140E-02
      9851 MEMB     80       PMPE     C216     CTL3    -0.270000       12.0110           0   0.00000     -0.301140E-02
      9852 MEMB     80       PMPE     H16R     HAL3     0.900000E-01   1.00800           0   0.00000     -0.301140E-02
      9853 MEMB     80       PMPE     H16S     HAL3     0.900000E-01   1.00800           0   0.00000     -0.301140E-02
      9854 MEMB     80       PMPE     H16T     HAL3     0.900000E-01   1.00800           0   0.00000     -0.301140E-02
      9855 MEMB     80       PMPE     C33      CTL2    -0.180000       12.0110           0   0.00000     -0.301140E-02
      9856 MEMB     80       PMPE     H3X      HAL2     0.900000E-01   1.00800           0   0.00000     -0.301140E-02
      9857 MEMB     80       PMPE     H3Y      HAL2     0.900000E-01   1.00800           0   0.00000     -0.301140E-02
      9858 MEMB     80       PMPE     C34      CTL2    -0.180000       12.0110           0   0.00000     -0.301140E-02
      9859 MEMB     80       PMPE     H4X      HAL2     0.900000E-01   1.00800           0   0.00000     -0.301140E-02
      9860 MEMB     80       PMPE     H4Y      HAL2     0.900000E-01   1.00800           0   0.00000     -0.301140E-02
      9861 MEMB     80       PMPE     C35      CTL2    -0.180000       12.0110           0   0.00000     -0.301140E-02
      9862 MEMB     80       PMPE     H5X      HAL2     0.900000E-01   1.00800           0   0.00000     -0.301140E-02
      9863 MEMB     80       PMPE     H5Y      HAL2     0.900000E-01   1.00800           0   0.00000     -0.301140E-02
      9864 MEMB     80       PMPE     C36      CTL2    -0.180000       12.0110           0   0.00000     -0.301140E-02
      9865 MEMB     80       PMPE     H6X      HAL2     0.900000E-01   1.00800           0   0.00000     -0.301140E-02
      9866 MEMB     80       PMPE     H6Y      HAL2     0.900000E-01   1.00800           0   0.00000     -0.301140E-02
      9867 MEMB     80       PMPE     C37      CTL2    -0.180000       12.0110           0   0.00000     -0.301140E-02
      9868 MEMB     80       PMPE     H7X      HAL2     0.900000E-01   1.00800           0   0.00000     -0.301140E-02
      9869 MEMB     80       PMPE     H7Y      HAL2     0.900000E-01   1.00800           0   0.00000     -0.301140E-02
      9870 MEMB     80       PMPE     C38      CTL2    -0.180000       12.0110           0   0.00000     -0.301140E-02
      9871 MEMB     80       PMPE     H8X      HAL2     0.900000E-01   1.00800           0   0.00000     -0.301140E-02
      9872 MEMB     80       PMPE     H8Y      HAL2     0.900000E-01   1.00800           0   0.00000     -0.301140E-02
      9873 MEMB     80       PMPE     C39      CTL2    -0.180000       12.0110           0   0.00000     -0.301140E-02
      9874 MEMB     80       PMPE     H9X      HAL2     0.900000E-01   1.00800           0   0.00000     -0.301140E-02
      9875 MEMB     80       PMPE     H9Y      HAL2     0.900000E-01   1.00800           0   0.00000     -0.301140E-02
      9876 MEMB     80       PMPE     C310     CTL2    -0.180000       12.0110           0   0.00000     -0.301140E-02
      9877 MEMB     80       PMPE     H10X     HAL2     0.900000E-01   1.00800           0   0.00000     -0.301140E-02
      9878 MEMB     80       PMPE     H10Y     HAL2     0.900000E-01   1.00800           0   0.00000     -0.301140E-02
      9879 MEMB     80       PMPE     C311     CTL2    -0.180000       12.0110           0   0.00000     -0.301140E-02
      9880 MEMB     80       PMPE     H11X     HAL2     0.900000E-01   1.00800           0   0.00000     -0.301140E-02
      9881 MEMB     80       PMPE     H11Y     HAL2     0.900000E-01   1.00800           0   0.00000     -0.301140E-02
      9882 MEMB     80       PMPE     C312     CTL2    -0.180000       12.0110           0   0.00000     -0.301140E-02
      9883 MEMB     80       PMPE     H12X     HAL2     0.900000E-01   1.00800           0   0.00000     -0.301140E-02
      9884 MEMB     80       PMPE     H12Y     HAL2     0.900000E-01   1.00800           0   0.00000     -0.301140E-02
      9885 MEMB     80       PMPE     C313     CTL2    -0.180000       12.0110           0   0.00000     -0.301140E-02
      9886 MEMB     80       PMPE     H13X     HAL2     0.900000E-01   1.00800           0   0.00000     -0.301140E-02
      9887 MEMB     80       PMPE     H13Y     HAL2     0.900000E-01   1.00800           0   0.00000     -0.301140E-02
      9888 MEMB     80       PMPE     C314     CTL2    -0.180000       12.0110           0   0.00000     -0.301140E-02
      9889 MEMB     80       PMPE     H14X     HAL2     0.900000E-01   1.00800           0   0.00000     -0.301140E-02
      9890 MEMB     80       PMPE     H14Y     HAL2     0.900000E-01   1.00800           0   0.00000     -0.301140E-02
      9891 MEMB     80       PMPE     C315     CTL2    -0.180000       12.0110           0   0.00000     -0.301140E-02
      9892 MEMB     80       PMPE     H15X     HAL2     0.900000E-01   1.00800           0   0.00000     -0.301140E-02
      9893 MEMB     80       PMPE     H15Y     HAL2     0.900000E-01   1.00800           0   0.00000     -0.301140E-02
      9894 MEMB     80       PMPE     C316     CTL3    -0.270000       12.0110           0   0.00000     -0.301140E-02
      9895 MEMB     80       PMPE     H16X     HAL3     0.900000E-01   1.00800           0   0.00000     -0.301140E-02
      9896 MEMB     80       PMPE     H16Y     HAL3     0.900000E-01   1.00800           0   0.00000     -0.301140E-02
      9897 MEMB     80       PMPE     H16Z     HAL3     0.900000E-01   1.00800           0   0.00000     -0.301140E-02
      9898 MEMB     81       QMPE     N        NH3L    -0.300000       14.0070           0   0.00000     -0.301140E-02
      9899 MEMB     81       QMPE     HN1      HCL      0.330000       1.00800           0   0.00000     -0.301140E-02
      9900 MEMB     81       QMPE     HN2      HCL      0.330000       1.00800           0   0.00000     -0.301140E-02
      9901 MEMB     81       QMPE     HN3      HCL      0.330000       1.00800           0   0.00000     -0.301140E-02
      9902 MEMB     81       QMPE     C12      CTL2     0.130000       12.0110           0   0.00000     -0.301140E-02
      9903 MEMB     81       QMPE     H12A     HAL2     0.900000E-01   1.00800           0   0.00000     -0.301140E-02
      9904 MEMB     81       QMPE     H12B     HAL2     0.900000E-01   1.00800           0   0.00000     -0.301140E-02
      9905 MEMB     81       QMPE     C11      CTL2    -0.800000E-01   12.0110           0   0.00000     -0.301140E-02
      9906 MEMB     81       QMPE     H11A     HAL2     0.900000E-01   1.00800           0   0.00000     -0.301140E-02
      9907 MEMB     81       QMPE     H11B     HAL2     0.900000E-01   1.00800           0   0.00000     -0.301140E-02
      9908 MEMB     81       QMPE     P        PL        1.50000       30.9740           0   0.00000     -0.301140E-02
      9909 MEMB     81       QMPE     O13      O2L     -0.780000       15.9994           0   0.00000     -0.301140E-02
      9910 MEMB     81       QMPE     O14      O2L     -0.780000       15.9994           0   0.00000     -0.301140E-02
      9911 MEMB     81       QMPE     O11      OSLP    -0.570000       15.9994           0   0.00000     -0.301140E-02
      9912 MEMB     81       QMPE     O12      OSLP    -0.570000       15.9994           0   0.00000     -0.301140E-02
      9913 MEMB     81       QMPE     C1       CTL2    -0.800000E-01   12.0110           0   0.00000     -0.301140E-02
      9914 MEMB     81       QMPE     HA       HAL2     0.900000E-01   1.00800           0   0.00000     -0.301140E-02
      9915 MEMB     81       QMPE     HB       HAL2     0.900000E-01   1.00800           0   0.00000     -0.301140E-02
      9916 MEMB     81       QMPE     C2       CTL1     0.170000       12.0110           0   0.00000     -0.301140E-02
      9917 MEMB     81       QMPE     HS       HAL1     0.900000E-01   1.00800           0   0.00000     -0.301140E-02
      9918 MEMB     81       QMPE     O21      OSL     -0.490000       15.9994           0   0.00000     -0.301140E-02
      9919 MEMB     81       QMPE     C21      CL       0.900000       12.0110           0   0.00000     -0.301140E-02
      9920 MEMB     81       QMPE     O22      OBL     -0.630000       15.9994           0   0.00000     -0.301140E-02
      9921 MEMB     81       QMPE     C22      CTL2    -0.220000       12.0110           0   0.00000     -0.301140E-02
      9922 MEMB     81       QMPE     H2R      HAL2     0.900000E-01   1.00800           0   0.00000     -0.301140E-02
      9923 MEMB     81       QMPE     H2S      HAL2     0.900000E-01   1.00800           0   0.00000     -0.301140E-02
      9924 MEMB     81       QMPE     C3       CTL2     0.800000E-01   12.0110           0   0.00000     -0.301140E-02
      9925 MEMB     81       QMPE     HX       HAL2     0.900000E-01   1.00800           0   0.00000     -0.301140E-02
      9926 MEMB     81       QMPE     HY       HAL2     0.900000E-01   1.00800           0   0.00000     -0.301140E-02
      9927 MEMB     81       QMPE     O31      OSL     -0.490000       15.9994           0   0.00000     -0.301140E-02
      9928 MEMB     81       QMPE     C31      CL       0.900000       12.0110           0   0.00000     -0.301140E-02
      9929 MEMB     81       QMPE     O32      OBL     -0.630000       15.9994           0   0.00000     -0.301140E-02
      9930 MEMB     81       QMPE     C32      CTL2    -0.220000       12.0110           0   0.00000     -0.301140E-02
      9931 MEMB     81       QMPE     H2X      HAL2     0.900000E-01   1.00800           0   0.00000     -0.301140E-02
      9932 MEMB     81       QMPE     H2Y      HAL2     0.900000E-01   1.00800           0   0.00000     -0.301140E-02
      9933 MEMB     81       QMPE     C23      CTL2    -0.180000       12.0110           0   0.00000     -0.301140E-02
      9934 MEMB     81       QMPE     H3R      HAL2     0.900000E-01   1.00800           0   0.00000     -0.301140E-02
      9935 MEMB     81       QMPE     H3S      HAL2     0.900000E-01   1.00800           0   0.00000     -0.301140E-02
      9936 MEMB     81       QMPE     C24      CTL2    -0.180000       12.0110           0   0.00000     -0.301140E-02
      9937 MEMB     81       QMPE     H4R      HAL2     0.900000E-01   1.00800           0   0.00000     -0.301140E-02
      9938 MEMB     81       QMPE     H4S      HAL2     0.900000E-01   1.00800           0   0.00000     -0.301140E-02
      9939 MEMB     81       QMPE     C25      CTL2    -0.180000       12.0110           0   0.00000     -0.301140E-02
      9940 MEMB     81       QMPE     H5R      HAL2     0.900000E-01   1.00800           0   0.00000     -0.301140E-02
      9941 MEMB     81       QMPE     H5S      HAL2     0.900000E-01   1.00800           0   0.00000     -0.301140E-02
      9942 MEMB     81       QMPE     C26      CTL2    -0.180000       12.0110           0   0.00000     -0.301140E-02
      9943 MEMB     81       QMPE     H6R      HAL2     0.900000E-01   1.00800           0   0.00000     -0.301140E-02
      9944 MEMB     81       QMPE     H6S      HAL2     0.900000E-01   1.00800           0   0.00000     -0.301140E-02
      9945 MEMB     81       QMPE     C27      CTL2    -0.180000       12.0110           0   0.00000     -0.301140E-02
      9946 MEMB     81       QMPE     H7R      HAL2     0.900000E-01   1.00800           0   0.00000     -0.301140E-02
      9947 MEMB     81       QMPE     H7S      HAL2     0.900000E-01   1.00800           0   0.00000     -0.301140E-02
      9948 MEMB     81       QMPE     C28      CTL2    -0.180000       12.0110           0   0.00000     -0.301140E-02
      9949 MEMB     81       QMPE     H8R      HAL2     0.900000E-01   1.00800           0   0.00000     -0.301140E-02
      9950 MEMB     81       QMPE     H8S      HAL2     0.900000E-01   1.00800           0   0.00000     -0.301140E-02
      9951 MEMB     81       QMPE     C29      CG3RC1  -0.900000E-01   12.0110           0   0.00000     -0.301140E-02
      9952 MEMB     81       QMPE     H9R      HGA1     0.900000E-01   1.00800           0   0.00000     -0.301140E-02
      9953 MEMB     81       QMPE     C217     CG3C31  -0.180000       12.0110           0   0.00000     -0.301140E-02
      9954 MEMB     81       QMPE     H17R     HGA2     0.900000E-01   1.00800           0   0.00000     -0.301140E-02
      9955 MEMB     81       QMPE     H17S     HGA2     0.900000E-01   1.00800           0   0.00000     -0.301140E-02
      9956 MEMB     81       QMPE     C210     CG3RC1  -0.900000E-01   12.0110           0   0.00000     -0.301140E-02
      9957 MEMB     81       QMPE     H10R     HGA1     0.900000E-01   1.00800           0   0.00000     -0.301140E-02
      9958 MEMB     81       QMPE     C211     CTL2    -0.180000       12.0110           0   0.00000     -0.301140E-02
      9959 MEMB     81       QMPE     H11R     HAL2     0.900000E-01   1.00800           0   0.00000     -0.301140E-02
      9960 MEMB     81       QMPE     H11S     HAL2     0.900000E-01   1.00800           0   0.00000     -0.301140E-02
      9961 MEMB     81       QMPE     C212     CTL2    -0.180000       12.0110           0   0.00000     -0.301140E-02
      9962 MEMB     81       QMPE     H12R     HAL2     0.900000E-01   1.00800           0   0.00000     -0.301140E-02
      9963 MEMB     81       QMPE     H12S     HAL2     0.900000E-01   1.00800           0   0.00000     -0.301140E-02
      9964 MEMB     81       QMPE     C213     CTL2    -0.180000       12.0110           0   0.00000     -0.301140E-02
      9965 MEMB     81       QMPE     H13R     HAL2     0.900000E-01   1.00800           0   0.00000     -0.301140E-02
      9966 MEMB     81       QMPE     H13S     HAL2     0.900000E-01   1.00800           0   0.00000     -0.301140E-02
      9967 MEMB     81       QMPE     C214     CTL2    -0.180000       12.0110           0   0.00000     -0.301140E-02
      9968 MEMB     81       QMPE     H14R     HAL2     0.900000E-01   1.00800           0   0.00000     -0.301140E-02
      9969 MEMB     81       QMPE     H14S     HAL2     0.900000E-01   1.00800           0   0.00000     -0.301140E-02
      9970 MEMB     81       QMPE     C215     CTL2    -0.180000       12.0110           0   0.00000     -0.301140E-02
      9971 MEMB     81       QMPE     H15R     HAL2     0.900000E-01   1.00800           0   0.00000     -0.301140E-02
      9972 MEMB     81       QMPE     H15S     HAL2     0.900000E-01   1.00800           0   0.00000     -0.301140E-02
      9973 MEMB     81       QMPE     C216     CTL3    -0.270000       12.0110           0   0.00000     -0.301140E-02
      9974 MEMB     81       QMPE     H16R     HAL3     0.900000E-01   1.00800           0   0.00000     -0.301140E-02
      9975 MEMB     81       QMPE     H16S     HAL3     0.900000E-01   1.00800           0   0.00000     -0.301140E-02
      9976 MEMB     81       QMPE     H16T     HAL3     0.900000E-01   1.00800           0   0.00000     -0.301140E-02
      9977 MEMB     81       QMPE     C33      CTL2    -0.180000       12.0110           0   0.00000     -0.301140E-02
      9978 MEMB     81       QMPE     H3X      HAL2     0.900000E-01   1.00800           0   0.00000     -0.301140E-02
      9979 MEMB     81       QMPE     H3Y      HAL2     0.900000E-01   1.00800           0   0.00000     -0.301140E-02
      9980 MEMB     81       QMPE     C34      CTL2    -0.180000       12.0110           0   0.00000     -0.301140E-02
      9981 MEMB     81       QMPE     H4X      HAL2     0.900000E-01   1.00800           0   0.00000     -0.301140E-02
      9982 MEMB     81       QMPE     H4Y      HAL2     0.900000E-01   1.00800           0   0.00000     -0.301140E-02
      9983 MEMB     81       QMPE     C35      CTL2    -0.180000       12.0110           0   0.00000     -0.301140E-02
      9984 MEMB     81       QMPE     H5X      HAL2     0.900000E-01   1.00800           0   0.00000     -0.301140E-02
      9985 MEMB     81       QMPE     H5Y      HAL2     0.900000E-01   1.00800           0   0.00000     -0.301140E-02
      9986 MEMB     81       QMPE     C36      CTL2    -0.180000       12.0110           0   0.00000     -0.301140E-02
      9987 MEMB     81       QMPE     H6X      HAL2     0.900000E-01   1.00800           0   0.00000     -0.301140E-02
      9988 MEMB     81       QMPE     H6Y      HAL2     0.900000E-01   1.00800           0   0.00000     -0.301140E-02
      9989 MEMB     81       QMPE     C37      CTL2    -0.180000       12.0110           0   0.00000     -0.301140E-02
      9990 MEMB     81       QMPE     H7X      HAL2     0.900000E-01   1.00800           0   0.00000     -0.301140E-02
      9991 MEMB     81       QMPE     H7Y      HAL2     0.900000E-01   1.00800           0   0.00000     -0.301140E-02
      9992 MEMB     81       QMPE     C38      CTL2    -0.180000       12.0110           0   0.00000     -0.301140E-02
      9993 MEMB     81       QMPE     H8X      HAL2     0.900000E-01   1.00800           0   0.00000     -0.301140E-02
      9994 MEMB     81       QMPE     H8Y      HAL2     0.900000E-01   1.00800           0   0.00000     -0.301140E-02
      9995 MEMB     81       QMPE     C39      CTL2    -0.180000       12.0110           0   0.00000     -0.301140E-02
      9996 MEMB     81       QMPE     H9X      HAL2     0.900000E-01   1.00800           0   0.00000     -0.301140E-02
      9997 MEMB     81       QMPE     H9Y      HAL2     0.900000E-01   1.00800           0   0.00000     -0.301140E-02
      9998 MEMB     81       QMPE     C310     CTL2    -0.180000       12.0110           0   0.00000     -0.301140E-02
      9999 MEMB     81       QMPE     H10X     HAL2     0.900000E-01   1.00800           0   0.00000     -0.301140E-02
     10000 MEMB     81       QMPE     H10Y     HAL2     0.900000E-01   1.00800           0   0.00000     -0.301140E-02
     10001 MEMB     81       QMPE     C311     CTL2    -0.180000       12.0110           0   0.00000     -0.301140E-02
     10002 MEMB     81       QMPE     H11X     HAL2     0.900000E-01   1.00800           0   0.00000     -0.301140E-02
     10003 MEMB     81       QMPE     H11Y     HAL2     0.900000E-01   1.00800           0   0.00000     -0.301140E-02
     10004 MEMB     81       QMPE     C312     CTL2    -0.180000       12.0110           0   0.00000     -0.301140E-02
     10005 MEMB     81       QMPE     H12X     HAL2     0.900000E-01   1.00800           0   0.00000     -0.301140E-02
     10006 MEMB     81       QMPE     H12Y     HAL2     0.900000E-01   1.00800           0   0.00000     -0.301140E-02
     10007 MEMB     81       QMPE     C313     CTL2    -0.180000       12.0110           0   0.00000     -0.301140E-02
     10008 MEMB     81       QMPE     H13X     HAL2     0.900000E-01   1.00800           0   0.00000     -0.301140E-02
     10009 MEMB     81       QMPE     H13Y     HAL2     0.900000E-01   1.00800           0   0.00000     -0.301140E-02
     10010 MEMB     81       QMPE     C314     CTL2    -0.180000       12.0110           0   0.00000     -0.301140E-02
     10011 MEMB     81       QMPE     H14X     HAL2     0.900000E-01   1.00800           0   0.00000     -0.301140E-02
     10012 MEMB     81       QMPE     H14Y     HAL2     0.900000E-01   1.00800           0   0.00000     -0.301140E-02
     10013 MEMB     81       QMPE     C315     CTL3    -0.270000       12.0110           0   0.00000     -0.301140E-02
     10014 MEMB     81       QMPE     H15X     HAL3     0.900000E-01   1.00800           0   0.00000     -0.301140E-02
     10015 MEMB     81       QMPE     H15Y     HAL3     0.900000E-01   1.00800           0   0.00000     -0.301140E-02
     10016 MEMB     81       QMPE     H15Z     HAL3     0.900000E-01   1.00800           0   0.00000     -0.301140E-02
     10017 MEMB     82       PMPE     N        NH3L    -0.300000       14.0070           0   0.00000     -0.301140E-02
     10018 MEMB     82       PMPE     HN1      HCL      0.330000       1.00800           0   0.00000     -0.301140E-02
     10019 MEMB     82       PMPE     HN2      HCL      0.330000       1.00800           0   0.00000     -0.301140E-02
     10020 MEMB     82       PMPE     HN3      HCL      0.330000       1.00800           0   0.00000     -0.301140E-02
     10021 MEMB     82       PMPE     C12      CTL2     0.130000       12.0110           0   0.00000     -0.301140E-02
     10022 MEMB     82       PMPE     H12A     HAL2     0.900000E-01   1.00800           0   0.00000     -0.301140E-02
     10023 MEMB     82       PMPE     H12B     HAL2     0.900000E-01   1.00800           0   0.00000     -0.301140E-02
     10024 MEMB     82       PMPE     C11      CTL2    -0.800000E-01   12.0110           0   0.00000     -0.301140E-02
     10025 MEMB     82       PMPE     H11A     HAL2     0.900000E-01   1.00800           0   0.00000     -0.301140E-02
     10026 MEMB     82       PMPE     H11B     HAL2     0.900000E-01   1.00800           0   0.00000     -0.301140E-02
     10027 MEMB     82       PMPE     P        PL        1.50000       30.9740           0   0.00000     -0.301140E-02
     10028 MEMB     82       PMPE     O13      O2L     -0.780000       15.9994           0   0.00000     -0.301140E-02
     10029 MEMB     82       PMPE     O14      O2L     -0.780000       15.9994           0   0.00000     -0.301140E-02
     10030 MEMB     82       PMPE     O11      OSLP    -0.570000       15.9994           0   0.00000     -0.301140E-02
     10031 MEMB     82       PMPE     O12      OSLP    -0.570000       15.9994           0   0.00000     -0.301140E-02
     10032 MEMB     82       PMPE     C1       CTL2    -0.800000E-01   12.0110           0   0.00000     -0.301140E-02
     10033 MEMB     82       PMPE     HA       HAL2     0.900000E-01   1.00800           0   0.00000     -0.301140E-02
     10034 MEMB     82       PMPE     HB       HAL2     0.900000E-01   1.00800           0   0.00000     -0.301140E-02
     10035 MEMB     82       PMPE     C2       CTL1     0.170000       12.0110           0   0.00000     -0.301140E-02
     10036 MEMB     82       PMPE     HS       HAL1     0.900000E-01   1.00800           0   0.00000     -0.301140E-02
     10037 MEMB     82       PMPE     O21      OSL     -0.490000       15.9994           0   0.00000     -0.301140E-02
     10038 MEMB     82       PMPE     C21      CL       0.900000       12.0110           0   0.00000     -0.301140E-02
     10039 MEMB     82       PMPE     O22      OBL     -0.630000       15.9994           0   0.00000     -0.301140E-02
     10040 MEMB     82       PMPE     C22      CTL2    -0.220000       12.0110           0   0.00000     -0.301140E-02
     10041 MEMB     82       PMPE     H2R      HAL2     0.900000E-01   1.00800           0   0.00000     -0.301140E-02
     10042 MEMB     82       PMPE     H2S      HAL2     0.900000E-01   1.00800           0   0.00000     -0.301140E-02
     10043 MEMB     82       PMPE     C3       CTL2     0.800000E-01   12.0110           0   0.00000     -0.301140E-02
     10044 MEMB     82       PMPE     HX       HAL2     0.900000E-01   1.00800           0   0.00000     -0.301140E-02
     10045 MEMB     82       PMPE     HY       HAL2     0.900000E-01   1.00800           0   0.00000     -0.301140E-02
     10046 MEMB     82       PMPE     O31      OSL     -0.490000       15.9994           0   0.00000     -0.301140E-02
     10047 MEMB     82       PMPE     C31      CL       0.900000       12.0110           0   0.00000     -0.301140E-02
     10048 MEMB     82       PMPE     O32      OBL     -0.630000       15.9994           0   0.00000     -0.301140E-02
     10049 MEMB     82       PMPE     C32      CTL2    -0.220000       12.0110           0   0.00000     -0.301140E-02
     10050 MEMB     82       PMPE     H2X      HAL2     0.900000E-01   1.00800           0   0.00000     -0.301140E-02
     10051 MEMB     82       PMPE     H2Y      HAL2     0.900000E-01   1.00800           0   0.00000     -0.301140E-02
     10052 MEMB     82       PMPE     C23      CTL2    -0.180000       12.0110           0   0.00000     -0.301140E-02
     10053 MEMB     82       PMPE     H3R      HAL2     0.900000E-01   1.00800           0   0.00000     -0.301140E-02
     10054 MEMB     82       PMPE     H3S      HAL2     0.900000E-01   1.00800           0   0.00000     -0.301140E-02
     10055 MEMB     82       PMPE     C24      CTL2    -0.180000       12.0110           0   0.00000     -0.301140E-02
     10056 MEMB     82       PMPE     H4R      HAL2     0.900000E-01   1.00800           0   0.00000     -0.301140E-02
     10057 MEMB     82       PMPE     H4S      HAL2     0.900000E-01   1.00800           0   0.00000     -0.301140E-02
     10058 MEMB     82       PMPE     C25      CTL2    -0.180000       12.0110           0   0.00000     -0.301140E-02
     10059 MEMB     82       PMPE     H5R      HAL2     0.900000E-01   1.00800           0   0.00000     -0.301140E-02
     10060 MEMB     82       PMPE     H5S      HAL2     0.900000E-01   1.00800           0   0.00000     -0.301140E-02
     10061 MEMB     82       PMPE     C26      CTL2    -0.180000       12.0110           0   0.00000     -0.301140E-02
     10062 MEMB     82       PMPE     H6R      HAL2     0.900000E-01   1.00800           0   0.00000     -0.301140E-02
     10063 MEMB     82       PMPE     H6S      HAL2     0.900000E-01   1.00800           0   0.00000     -0.301140E-02
     10064 MEMB     82       PMPE     C27      CTL2    -0.180000       12.0110           0   0.00000     -0.301140E-02
     10065 MEMB     82       PMPE     H7R      HAL2     0.900000E-01   1.00800           0   0.00000     -0.301140E-02
     10066 MEMB     82       PMPE     H7S      HAL2     0.900000E-01   1.00800           0   0.00000     -0.301140E-02
     10067 MEMB     82       PMPE     C28      CTL2    -0.180000       12.0110           0   0.00000     -0.301140E-02
     10068 MEMB     82       PMPE     H8R      HAL2     0.900000E-01   1.00800           0   0.00000     -0.301140E-02
     10069 MEMB     82       PMPE     H8S      HAL2     0.900000E-01   1.00800           0   0.00000     -0.301140E-02
     10070 MEMB     82       PMPE     C29      CG3RC1  -0.900000E-01   12.0110           0   0.00000     -0.301140E-02
     10071 MEMB     82       PMPE     H9R      HGA1     0.900000E-01   1.00800           0   0.00000     -0.301140E-02
     10072 MEMB     82       PMPE     C217     CG3C31  -0.180000       12.0110           0   0.00000     -0.301140E-02
     10073 MEMB     82       PMPE     H17R     HGA2     0.900000E-01   1.00800           0   0.00000     -0.301140E-02
     10074 MEMB     82       PMPE     H17S     HGA2     0.900000E-01   1.00800           0   0.00000     -0.301140E-02
     10075 MEMB     82       PMPE     C210     CG3RC1  -0.900000E-01   12.0110           0   0.00000     -0.301140E-02
     10076 MEMB     82       PMPE     H10R     HGA1     0.900000E-01   1.00800           0   0.00000     -0.301140E-02
     10077 MEMB     82       PMPE     C211     CTL2    -0.180000       12.0110           0   0.00000     -0.301140E-02
     10078 MEMB     82       PMPE     H11R     HAL2     0.900000E-01   1.00800           0   0.00000     -0.301140E-02
     10079 MEMB     82       PMPE     H11S     HAL2     0.900000E-01   1.00800           0   0.00000     -0.301140E-02
     10080 MEMB     82       PMPE     C212     CTL2    -0.180000       12.0110           0   0.00000     -0.301140E-02
     10081 MEMB     82       PMPE     H12R     HAL2     0.900000E-01   1.00800           0   0.00000     -0.301140E-02
     10082 MEMB     82       PMPE     H12S     HAL2     0.900000E-01   1.00800           0   0.00000     -0.301140E-02
     10083 MEMB     82       PMPE     C213     CTL2    -0.180000       12.0110           0   0.00000     -0.301140E-02
     10084 MEMB     82       PMPE     H13R     HAL2     0.900000E-01   1.00800           0   0.00000     -0.301140E-02
     10085 MEMB     82       PMPE     H13S     HAL2     0.900000E-01   1.00800           0   0.00000     -0.301140E-02
     10086 MEMB     82       PMPE     C214     CTL2    -0.180000       12.0110           0   0.00000     -0.301140E-02
     10087 MEMB     82       PMPE     H14R     HAL2     0.900000E-01   1.00800           0   0.00000     -0.301140E-02
     10088 MEMB     82       PMPE     H14S     HAL2     0.900000E-01   1.00800           0   0.00000     -0.301140E-02
     10089 MEMB     82       PMPE     C215     CTL2    -0.180000       12.0110           0   0.00000     -0.301140E-02
     10090 MEMB     82       PMPE     H15R     HAL2     0.900000E-01   1.00800           0   0.00000     -0.301140E-02
     10091 MEMB     82       PMPE     H15S     HAL2     0.900000E-01   1.00800           0   0.00000     -0.301140E-02
     10092 MEMB     82       PMPE     C216     CTL3    -0.270000       12.0110           0   0.00000     -0.301140E-02
     10093 MEMB     82       PMPE     H16R     HAL3     0.900000E-01   1.00800           0   0.00000     -0.301140E-02
     10094 MEMB     82       PMPE     H16S     HAL3     0.900000E-01   1.00800           0   0.00000     -0.301140E-02
     10095 MEMB     82       PMPE     H16T     HAL3     0.900000E-01   1.00800           0   0.00000     -0.301140E-02
     10096 MEMB     82       PMPE     C33      CTL2    -0.180000       12.0110           0   0.00000     -0.301140E-02
     10097 MEMB     82       PMPE     H3X      HAL2     0.900000E-01   1.00800           0   0.00000     -0.301140E-02
     10098 MEMB     82       PMPE     H3Y      HAL2     0.900000E-01   1.00800           0   0.00000     -0.301140E-02
     10099 MEMB     82       PMPE     C34      CTL2    -0.180000       12.0110           0   0.00000     -0.301140E-02
     10100 MEMB     82       PMPE     H4X      HAL2     0.900000E-01   1.00800           0   0.00000     -0.301140E-02
     10101 MEMB     82       PMPE     H4Y      HAL2     0.900000E-01   1.00800           0   0.00000     -0.301140E-02
     10102 MEMB     82       PMPE     C35      CTL2    -0.180000       12.0110           0   0.00000     -0.301140E-02
     10103 MEMB     82       PMPE     H5X      HAL2     0.900000E-01   1.00800           0   0.00000     -0.301140E-02
     10104 MEMB     82       PMPE     H5Y      HAL2     0.900000E-01   1.00800           0   0.00000     -0.301140E-02
     10105 MEMB     82       PMPE     C36      CTL2    -0.180000       12.0110           0   0.00000     -0.301140E-02
     10106 MEMB     82       PMPE     H6X      HAL2     0.900000E-01   1.00800           0   0.00000     -0.301140E-02
     10107 MEMB     82       PMPE     H6Y      HAL2     0.900000E-01   1.00800           0   0.00000     -0.301140E-02
     10108 MEMB     82       PMPE     C37      CTL2    -0.180000       12.0110           0   0.00000     -0.301140E-02
     10109 MEMB     82       PMPE     H7X      HAL2     0.900000E-01   1.00800           0   0.00000     -0.301140E-02
     10110 MEMB     82       PMPE     H7Y      HAL2     0.900000E-01   1.00800           0   0.00000     -0.301140E-02
     10111 MEMB     82       PMPE     C38      CTL2    -0.180000       12.0110           0   0.00000     -0.301140E-02
     10112 MEMB     82       PMPE     H8X      HAL2     0.900000E-01   1.00800           0   0.00000     -0.301140E-02
     10113 MEMB     82       PMPE     H8Y      HAL2     0.900000E-01   1.00800           0   0.00000     -0.301140E-02
     10114 MEMB     82       PMPE     C39      CTL2    -0.180000       12.0110           0   0.00000     -0.301140E-02
     10115 MEMB     82       PMPE     H9X      HAL2     0.900000E-01   1.00800           0   0.00000     -0.301140E-02
     10116 MEMB     82       PMPE     H9Y      HAL2     0.900000E-01   1.00800           0   0.00000     -0.301140E-02
     10117 MEMB     82       PMPE     C310     CTL2    -0.180000       12.0110           0   0.00000     -0.301140E-02
     10118 MEMB     82       PMPE     H10X     HAL2     0.900000E-01   1.00800           0   0.00000     -0.301140E-02
     10119 MEMB     82       PMPE     H10Y     HAL2     0.900000E-01   1.00800           0   0.00000     -0.301140E-02
     10120 MEMB     82       PMPE     C311     CTL2    -0.180000       12.0110           0   0.00000     -0.301140E-02
     10121 MEMB     82       PMPE     H11X     HAL2     0.900000E-01   1.00800           0   0.00000     -0.301140E-02
     10122 MEMB     82       PMPE     H11Y     HAL2     0.900000E-01   1.00800           0   0.00000     -0.301140E-02
     10123 MEMB     82       PMPE     C312     CTL2    -0.180000       12.0110           0   0.00000     -0.301140E-02
     10124 MEMB     82       PMPE     H12X     HAL2     0.900000E-01   1.00800           0   0.00000     -0.301140E-02
     10125 MEMB     82       PMPE     H12Y     HAL2     0.900000E-01   1.00800           0   0.00000     -0.301140E-02
     10126 MEMB     82       PMPE     C313     CTL2    -0.180000       12.0110           0   0.00000     -0.301140E-02
     10127 MEMB     82       PMPE     H13X     HAL2     0.900000E-01   1.00800           0   0.00000     -0.301140E-02
     10128 MEMB     82       PMPE     H13Y     HAL2     0.900000E-01   1.00800           0   0.00000     -0.301140E-02
     10129 MEMB     82       PMPE     C314     CTL2    -0.180000       12.0110           0   0.00000     -0.301140E-02
     10130 MEMB     82       PMPE     H14X     HAL2     0.900000E-01   1.00800           0   0.00000     -0.301140E-02
     10131 MEMB     82       PMPE     H14Y     HAL2     0.900000E-01   1.00800           0   0.00000     -0.301140E-02
     10132 MEMB     82       PMPE     C315     CTL2    -0.180000       12.0110           0   0.00000     -0.301140E-02
     10133 MEMB     82       PMPE     H15X     HAL2     0.900000E-01   1.00800           0   0.00000     -0.301140E-02
     10134 MEMB     82       PMPE     H15Y     HAL2     0.900000E-01   1.00800           0   0.00000     -0.301140E-02
     10135 MEMB     82       PMPE     C316     CTL3    -0.270000       12.0110           0   0.00000     -0.301140E-02
     10136 MEMB     82       PMPE     H16X     HAL3     0.900000E-01   1.00800           0   0.00000     -0.301140E-02
     10137 MEMB     82       PMPE     H16Y     HAL3     0.900000E-01   1.00800           0   0.00000     -0.301140E-02
     10138 MEMB     82       PMPE     H16Z     HAL3     0.900000E-01   1.00800           0   0.00000     -0.301140E-02
     10139 MEMB     83       QMPE     N        NH3L    -0.300000       14.0070           0   0.00000     -0.301140E-02
     10140 MEMB     83       QMPE     HN1      HCL      0.330000       1.00800           0   0.00000     -0.301140E-02
     10141 MEMB     83       QMPE     HN2      HCL      0.330000       1.00800           0   0.00000     -0.301140E-02
     10142 MEMB     83       QMPE     HN3      HCL      0.330000       1.00800           0   0.00000     -0.301140E-02
     10143 MEMB     83       QMPE     C12      CTL2     0.130000       12.0110           0   0.00000     -0.301140E-02
     10144 MEMB     83       QMPE     H12A     HAL2     0.900000E-01   1.00800           0   0.00000     -0.301140E-02
     10145 MEMB     83       QMPE     H12B     HAL2     0.900000E-01   1.00800           0   0.00000     -0.301140E-02
     10146 MEMB     83       QMPE     C11      CTL2    -0.800000E-01   12.0110           0   0.00000     -0.301140E-02
     10147 MEMB     83       QMPE     H11A     HAL2     0.900000E-01   1.00800           0   0.00000     -0.301140E-02
     10148 MEMB     83       QMPE     H11B     HAL2     0.900000E-01   1.00800           0   0.00000     -0.301140E-02
     10149 MEMB     83       QMPE     P        PL        1.50000       30.9740           0   0.00000     -0.301140E-02
     10150 MEMB     83       QMPE     O13      O2L     -0.780000       15.9994           0   0.00000     -0.301140E-02
     10151 MEMB     83       QMPE     O14      O2L     -0.780000       15.9994           0   0.00000     -0.301140E-02
     10152 MEMB     83       QMPE     O11      OSLP    -0.570000       15.9994           0   0.00000     -0.301140E-02
     10153 MEMB     83       QMPE     O12      OSLP    -0.570000       15.9994           0   0.00000     -0.301140E-02
     10154 MEMB     83       QMPE     C1       CTL2    -0.800000E-01   12.0110           0   0.00000     -0.301140E-02
     10155 MEMB     83       QMPE     HA       HAL2     0.900000E-01   1.00800           0   0.00000     -0.301140E-02
     10156 MEMB     83       QMPE     HB       HAL2     0.900000E-01   1.00800           0   0.00000     -0.301140E-02
     10157 MEMB     83       QMPE     C2       CTL1     0.170000       12.0110           0   0.00000     -0.301140E-02
     10158 MEMB     83       QMPE     HS       HAL1     0.900000E-01   1.00800           0   0.00000     -0.301140E-02
     10159 MEMB     83       QMPE     O21      OSL     -0.490000       15.9994           0   0.00000     -0.301140E-02
     10160 MEMB     83       QMPE     C21      CL       0.900000       12.0110           0   0.00000     -0.301140E-02
     10161 MEMB     83       QMPE     O22      OBL     -0.630000       15.9994           0   0.00000     -0.301140E-02
     10162 MEMB     83       QMPE     C22      CTL2    -0.220000       12.0110           0   0.00000     -0.301140E-02
     10163 MEMB     83       QMPE     H2R      HAL2     0.900000E-01   1.00800           0   0.00000     -0.301140E-02
     10164 MEMB     83       QMPE     H2S      HAL2     0.900000E-01   1.00800           0   0.00000     -0.301140E-02
     10165 MEMB     83       QMPE     C3       CTL2     0.800000E-01   12.0110           0   0.00000     -0.301140E-02
     10166 MEMB     83       QMPE     HX       HAL2     0.900000E-01   1.00800           0   0.00000     -0.301140E-02
     10167 MEMB     83       QMPE     HY       HAL2     0.900000E-01   1.00800           0   0.00000     -0.301140E-02
     10168 MEMB     83       QMPE     O31      OSL     -0.490000       15.9994           0   0.00000     -0.301140E-02
     10169 MEMB     83       QMPE     C31      CL       0.900000       12.0110           0   0.00000     -0.301140E-02
     10170 MEMB     83       QMPE     O32      OBL     -0.630000       15.9994           0   0.00000     -0.301140E-02
     10171 MEMB     83       QMPE     C32      CTL2    -0.220000       12.0110           0   0.00000     -0.301140E-02
     10172 MEMB     83       QMPE     H2X      HAL2     0.900000E-01   1.00800           0   0.00000     -0.301140E-02
     10173 MEMB     83       QMPE     H2Y      HAL2     0.900000E-01   1.00800           0   0.00000     -0.301140E-02
     10174 MEMB     83       QMPE     C23      CTL2    -0.180000       12.0110           0   0.00000     -0.301140E-02
     10175 MEMB     83       QMPE     H3R      HAL2     0.900000E-01   1.00800           0   0.00000     -0.301140E-02
     10176 MEMB     83       QMPE     H3S      HAL2     0.900000E-01   1.00800           0   0.00000     -0.301140E-02
     10177 MEMB     83       QMPE     C24      CTL2    -0.180000       12.0110           0   0.00000     -0.301140E-02
     10178 MEMB     83       QMPE     H4R      HAL2     0.900000E-01   1.00800           0   0.00000     -0.301140E-02
     10179 MEMB     83       QMPE     H4S      HAL2     0.900000E-01   1.00800           0   0.00000     -0.301140E-02
     10180 MEMB     83       QMPE     C25      CTL2    -0.180000       12.0110           0   0.00000     -0.301140E-02
     10181 MEMB     83       QMPE     H5R      HAL2     0.900000E-01   1.00800           0   0.00000     -0.301140E-02
     10182 MEMB     83       QMPE     H5S      HAL2     0.900000E-01   1.00800           0   0.00000     -0.301140E-02
     10183 MEMB     83       QMPE     C26      CTL2    -0.180000       12.0110           0   0.00000     -0.301140E-02
     10184 MEMB     83       QMPE     H6R      HAL2     0.900000E-01   1.00800           0   0.00000     -0.301140E-02
     10185 MEMB     83       QMPE     H6S      HAL2     0.900000E-01   1.00800           0   0.00000     -0.301140E-02
     10186 MEMB     83       QMPE     C27      CTL2    -0.180000       12.0110           0   0.00000     -0.301140E-02
     10187 MEMB     83       QMPE     H7R      HAL2     0.900000E-01   1.00800           0   0.00000     -0.301140E-02
     10188 MEMB     83       QMPE     H7S      HAL2     0.900000E-01   1.00800           0   0.00000     -0.301140E-02
     10189 MEMB     83       QMPE     C28      CTL2    -0.180000       12.0110           0   0.00000     -0.301140E-02
     10190 MEMB     83       QMPE     H8R      HAL2     0.900000E-01   1.00800           0   0.00000     -0.301140E-02
     10191 MEMB     83       QMPE     H8S      HAL2     0.900000E-01   1.00800           0   0.00000     -0.301140E-02
     10192 MEMB     83       QMPE     C29      CG3RC1  -0.900000E-01   12.0110           0   0.00000     -0.301140E-02
     10193 MEMB     83       QMPE     H9R      HGA1     0.900000E-01   1.00800           0   0.00000     -0.301140E-02
     10194 MEMB     83       QMPE     C217     CG3C31  -0.180000       12.0110           0   0.00000     -0.301140E-02
     10195 MEMB     83       QMPE     H17R     HGA2     0.900000E-01   1.00800           0   0.00000     -0.301140E-02
     10196 MEMB     83       QMPE     H17S     HGA2     0.900000E-01   1.00800           0   0.00000     -0.301140E-02
     10197 MEMB     83       QMPE     C210     CG3RC1  -0.900000E-01   12.0110           0   0.00000     -0.301140E-02
     10198 MEMB     83       QMPE     H10R     HGA1     0.900000E-01   1.00800           0   0.00000     -0.301140E-02
     10199 MEMB     83       QMPE     C211     CTL2    -0.180000       12.0110           0   0.00000     -0.301140E-02
     10200 MEMB     83       QMPE     H11R     HAL2     0.900000E-01   1.00800           0   0.00000     -0.301140E-02
     10201 MEMB     83       QMPE     H11S     HAL2     0.900000E-01   1.00800           0   0.00000     -0.301140E-02
     10202 MEMB     83       QMPE     C212     CTL2    -0.180000       12.0110           0   0.00000     -0.301140E-02
     10203 MEMB     83       QMPE     H12R     HAL2     0.900000E-01   1.00800           0   0.00000     -0.301140E-02
     10204 MEMB     83       QMPE     H12S     HAL2     0.900000E-01   1.00800           0   0.00000     -0.301140E-02
     10205 MEMB     83       QMPE     C213     CTL2    -0.180000       12.0110           0   0.00000     -0.301140E-02
     10206 MEMB     83       QMPE     H13R     HAL2     0.900000E-01   1.00800           0   0.00000     -0.301140E-02
     10207 MEMB     83       QMPE     H13S     HAL2     0.900000E-01   1.00800           0   0.00000     -0.301140E-02
     10208 MEMB     83       QMPE     C214     CTL2    -0.180000       12.0110           0   0.00000     -0.301140E-02
     10209 MEMB     83       QMPE     H14R     HAL2     0.900000E-01   1.00800           0   0.00000     -0.301140E-02
     10210 MEMB     83       QMPE     H14S     HAL2     0.900000E-01   1.00800           0   0.00000     -0.301140E-02
     10211 MEMB     83       QMPE     C215     CTL2    -0.180000       12.0110           0   0.00000     -0.301140E-02
     10212 MEMB     83       QMPE     H15R     HAL2     0.900000E-01   1.00800           0   0.00000     -0.301140E-02
     10213 MEMB     83       QMPE     H15S     HAL2     0.900000E-01   1.00800           0   0.00000     -0.301140E-02
     10214 MEMB     83       QMPE     C216     CTL3    -0.270000       12.0110           0   0.00000     -0.301140E-02
     10215 MEMB     83       QMPE     H16R     HAL3     0.900000E-01   1.00800           0   0.00000     -0.301140E-02
     10216 MEMB     83       QMPE     H16S     HAL3     0.900000E-01   1.00800           0   0.00000     -0.301140E-02
     10217 MEMB     83       QMPE     H16T     HAL3     0.900000E-01   1.00800           0   0.00000     -0.301140E-02
     10218 MEMB     83       QMPE     C33      CTL2    -0.180000       12.0110           0   0.00000     -0.301140E-02
     10219 MEMB     83       QMPE     H3X      HAL2     0.900000E-01   1.00800           0   0.00000     -0.301140E-02
     10220 MEMB     83       QMPE     H3Y      HAL2     0.900000E-01   1.00800           0   0.00000     -0.301140E-02
     10221 MEMB     83       QMPE     C34      CTL2    -0.180000       12.0110           0   0.00000     -0.301140E-02
     10222 MEMB     83       QMPE     H4X      HAL2     0.900000E-01   1.00800           0   0.00000     -0.301140E-02
     10223 MEMB     83       QMPE     H4Y      HAL2     0.900000E-01   1.00800           0   0.00000     -0.301140E-02
     10224 MEMB     83       QMPE     C35      CTL2    -0.180000       12.0110           0   0.00000     -0.301140E-02
     10225 MEMB     83       QMPE     H5X      HAL2     0.900000E-01   1.00800           0   0.00000     -0.301140E-02
     10226 MEMB     83       QMPE     H5Y      HAL2     0.900000E-01   1.00800           0   0.00000     -0.301140E-02
     10227 MEMB     83       QMPE     C36      CTL2    -0.180000       12.0110           0   0.00000     -0.301140E-02
     10228 MEMB     83       QMPE     H6X      HAL2     0.900000E-01   1.00800           0   0.00000     -0.301140E-02
     10229 MEMB     83       QMPE     H6Y      HAL2     0.900000E-01   1.00800           0   0.00000     -0.301140E-02
     10230 MEMB     83       QMPE     C37      CTL2    -0.180000       12.0110           0   0.00000     -0.301140E-02
     10231 MEMB     83       QMPE     H7X      HAL2     0.900000E-01   1.00800           0   0.00000     -0.301140E-02
     10232 MEMB     83       QMPE     H7Y      HAL2     0.900000E-01   1.00800           0   0.00000     -0.301140E-02
     10233 MEMB     83       QMPE     C38      CTL2    -0.180000       12.0110           0   0.00000     -0.301140E-02
     10234 MEMB     83       QMPE     H8X      HAL2     0.900000E-01   1.00800           0   0.00000     -0.301140E-02
     10235 MEMB     83       QMPE     H8Y      HAL2     0.900000E-01   1.00800           0   0.00000     -0.301140E-02
     10236 MEMB     83       QMPE     C39      CTL2    -0.180000       12.0110           0   0.00000     -0.301140E-02
     10237 MEMB     83       QMPE     H9X      HAL2     0.900000E-01   1.00800           0   0.00000     -0.301140E-02
     10238 MEMB     83       QMPE     H9Y      HAL2     0.900000E-01   1.00800           0   0.00000     -0.301140E-02
     10239 MEMB     83       QMPE     C310     CTL2    -0.180000       12.0110           0   0.00000     -0.301140E-02
     10240 MEMB     83       QMPE     H10X     HAL2     0.900000E-01   1.00800           0   0.00000     -0.301140E-02
     10241 MEMB     83       QMPE     H10Y     HAL2     0.900000E-01   1.00800           0   0.00000     -0.301140E-02
     10242 MEMB     83       QMPE     C311     CTL2    -0.180000       12.0110           0   0.00000     -0.301140E-02
     10243 MEMB     83       QMPE     H11X     HAL2     0.900000E-01   1.00800           0   0.00000     -0.301140E-02
     10244 MEMB     83       QMPE     H11Y     HAL2     0.900000E-01   1.00800           0   0.00000     -0.301140E-02
     10245 MEMB     83       QMPE     C312     CTL2    -0.180000       12.0110           0   0.00000     -0.301140E-02
     10246 MEMB     83       QMPE     H12X     HAL2     0.900000E-01   1.00800           0   0.00000     -0.301140E-02
     10247 MEMB     83       QMPE     H12Y     HAL2     0.900000E-01   1.00800           0   0.00000     -0.301140E-02
     10248 MEMB     83       QMPE     C313     CTL2    -0.180000       12.0110           0   0.00000     -0.301140E-02
     10249 MEMB     83       QMPE     H13X     HAL2     0.900000E-01   1.00800           0   0.00000     -0.301140E-02
     10250 MEMB     83       QMPE     H13Y     HAL2     0.900000E-01   1.00800           0   0.00000     -0.301140E-02
     10251 MEMB     83       QMPE     C314     CTL2    -0.180000       12.0110           0   0.00000     -0.301140E-02
     10252 MEMB     83       QMPE     H14X     HAL2     0.900000E-01   1.00800           0   0.00000     -0.301140E-02
     10253 MEMB     83       QMPE     H14Y     HAL2     0.900000E-01   1.00800           0   0.00000     -0.301140E-02
     10254 MEMB     83       QMPE     C315     CTL3    -0.270000       12.0110           0   0.00000     -0.301140E-02
     10255 MEMB     83       QMPE     H15X     HAL3     0.900000E-01   1.00800           0   0.00000     -0.301140E-02
     10256 MEMB     83       QMPE     H15Y     HAL3     0.900000E-01   1.00800           0   0.00000     -0.301140E-02
     10257 MEMB     83       QMPE     H15Z     HAL3     0.900000E-01   1.00800           0   0.00000     -0.301140E-02
     10258 MEMB     84       POPE     N        NH3L    -0.300000       14.0070           0   0.00000     -0.301140E-02
     10259 MEMB     84       POPE     HN1      HCL      0.330000       1.00800           0   0.00000     -0.301140E-02
     10260 MEMB     84       POPE     HN2      HCL      0.330000       1.00800           0   0.00000     -0.301140E-02
     10261 MEMB     84       POPE     HN3      HCL      0.330000       1.00800           0   0.00000     -0.301140E-02
     10262 MEMB     84       POPE     C12      CTL2     0.130000       12.0110           0   0.00000     -0.301140E-02
     10263 MEMB     84       POPE     H12A     HAL2     0.900000E-01   1.00800           0   0.00000     -0.301140E-02
     10264 MEMB     84       POPE     H12B     HAL2     0.900000E-01   1.00800           0   0.00000     -0.301140E-02
     10265 MEMB     84       POPE     C11      CTL2    -0.800000E-01   12.0110           0   0.00000     -0.301140E-02
     10266 MEMB     84       POPE     H11A     HAL2     0.900000E-01   1.00800           0   0.00000     -0.301140E-02
     10267 MEMB     84       POPE     H11B     HAL2     0.900000E-01   1.00800           0   0.00000     -0.301140E-02
     10268 MEMB     84       POPE     P        PL        1.50000       30.9740           0   0.00000     -0.301140E-02
     10269 MEMB     84       POPE     O13      O2L     -0.780000       15.9994           0   0.00000     -0.301140E-02
     10270 MEMB     84       POPE     O14      O2L     -0.780000       15.9994           0   0.00000     -0.301140E-02
     10271 MEMB     84       POPE     O11      OSLP    -0.570000       15.9994           0   0.00000     -0.301140E-02
     10272 MEMB     84       POPE     O12      OSLP    -0.570000       15.9994           0   0.00000     -0.301140E-02
     10273 MEMB     84       POPE     C1       CTL2    -0.800000E-01   12.0110           0   0.00000     -0.301140E-02
     10274 MEMB     84       POPE     HA       HAL2     0.900000E-01   1.00800           0   0.00000     -0.301140E-02
     10275 MEMB     84       POPE     HB       HAL2     0.900000E-01   1.00800           0   0.00000     -0.301140E-02
     10276 MEMB     84       POPE     C2       CTL1     0.170000       12.0110           0   0.00000     -0.301140E-02
     10277 MEMB     84       POPE     HS       HAL1     0.900000E-01   1.00800           0   0.00000     -0.301140E-02
     10278 MEMB     84       POPE     O21      OSL     -0.490000       15.9994           0   0.00000     -0.301140E-02
     10279 MEMB     84       POPE     C21      CL       0.900000       12.0110           0   0.00000     -0.301140E-02
     10280 MEMB     84       POPE     O22      OBL     -0.630000       15.9994           0   0.00000     -0.301140E-02
     10281 MEMB     84       POPE     C22      CTL2    -0.220000       12.0110           0   0.00000     -0.301140E-02
     10282 MEMB     84       POPE     H2R      HAL2     0.900000E-01   1.00800           0   0.00000     -0.301140E-02
     10283 MEMB     84       POPE     H2S      HAL2     0.900000E-01   1.00800           0   0.00000     -0.301140E-02
     10284 MEMB     84       POPE     C3       CTL2     0.800000E-01   12.0110           0   0.00000     -0.301140E-02
     10285 MEMB     84       POPE     HX       HAL2     0.900000E-01   1.00800           0   0.00000     -0.301140E-02
     10286 MEMB     84       POPE     HY       HAL2     0.900000E-01   1.00800           0   0.00000     -0.301140E-02
     10287 MEMB     84       POPE     O31      OSL     -0.490000       15.9994           0   0.00000     -0.301140E-02
     10288 MEMB     84       POPE     C31      CL       0.900000       12.0110           0   0.00000     -0.301140E-02
     10289 MEMB     84       POPE     O32      OBL     -0.630000       15.9994           0   0.00000     -0.301140E-02
     10290 MEMB     84       POPE     C32      CTL2    -0.220000       12.0110           0   0.00000     -0.301140E-02
     10291 MEMB     84       POPE     H2X      HAL2     0.900000E-01   1.00800           0   0.00000     -0.301140E-02
     10292 MEMB     84       POPE     H2Y      HAL2     0.900000E-01   1.00800           0   0.00000     -0.301140E-02
     10293 MEMB     84       POPE     C23      CTL2    -0.180000       12.0110           0   0.00000     -0.301140E-02
     10294 MEMB     84       POPE     H3R      HAL2     0.900000E-01   1.00800           0   0.00000     -0.301140E-02
     10295 MEMB     84       POPE     H3S      HAL2     0.900000E-01   1.00800           0   0.00000     -0.301140E-02
     10296 MEMB     84       POPE     C24      CTL2    -0.180000       12.0110           0   0.00000     -0.301140E-02
     10297 MEMB     84       POPE     H4R      HAL2     0.900000E-01   1.00800           0   0.00000     -0.301140E-02
     10298 MEMB     84       POPE     H4S      HAL2     0.900000E-01   1.00800           0   0.00000     -0.301140E-02
     10299 MEMB     84       POPE     C25      CTL2    -0.180000       12.0110           0   0.00000     -0.301140E-02
     10300 MEMB     84       POPE     H5R      HAL2     0.900000E-01   1.00800           0   0.00000     -0.301140E-02
     10301 MEMB     84       POPE     H5S      HAL2     0.900000E-01   1.00800           0   0.00000     -0.301140E-02
     10302 MEMB     84       POPE     C26      CTL2    -0.180000       12.0110           0   0.00000     -0.301140E-02
     10303 MEMB     84       POPE     H6R      HAL2     0.900000E-01   1.00800           0   0.00000     -0.301140E-02
     10304 MEMB     84       POPE     H6S      HAL2     0.900000E-01   1.00800           0   0.00000     -0.301140E-02
     10305 MEMB     84       POPE     C27      CTL2    -0.180000       12.0110           0   0.00000     -0.301140E-02
     10306 MEMB     84       POPE     H7R      HAL2     0.900000E-01   1.00800           0   0.00000     -0.301140E-02
     10307 MEMB     84       POPE     H7S      HAL2     0.900000E-01   1.00800           0   0.00000     -0.301140E-02
     10308 MEMB     84       POPE     C28      CTL2    -0.180000       12.0110           0   0.00000     -0.301140E-02
     10309 MEMB     84       POPE     H8R      HAL2     0.900000E-01   1.00800           0   0.00000     -0.301140E-02
     10310 MEMB     84       POPE     H8S      HAL2     0.900000E-01   1.00800           0   0.00000     -0.301140E-02
     10311 MEMB     84       POPE     C29      CEL1    -0.150000       12.0110           0   0.00000     -0.301140E-02
     10312 MEMB     84       POPE     H91      HEL1     0.150000       1.00800           0   0.00000     -0.301140E-02
     10313 MEMB     84       POPE     C210     CEL1    -0.150000       12.0110           0   0.00000     -0.301140E-02
     10314 MEMB     84       POPE     H101     HEL1     0.150000       1.00800           0   0.00000     -0.301140E-02
     10315 MEMB     84       POPE     C211     CTL2    -0.180000       12.0110           0   0.00000     -0.301140E-02
     10316 MEMB     84       POPE     H11R     HAL2     0.900000E-01   1.00800           0   0.00000     -0.301140E-02
     10317 MEMB     84       POPE     H11S     HAL2     0.900000E-01   1.00800           0   0.00000     -0.301140E-02
     10318 MEMB     84       POPE     C212     CTL2    -0.180000       12.0110           0   0.00000     -0.301140E-02
     10319 MEMB     84       POPE     H12R     HAL2     0.900000E-01   1.00800           0   0.00000     -0.301140E-02
     10320 MEMB     84       POPE     H12S     HAL2     0.900000E-01   1.00800           0   0.00000     -0.301140E-02
     10321 MEMB     84       POPE     C213     CTL2    -0.180000       12.0110           0   0.00000     -0.301140E-02
     10322 MEMB     84       POPE     H13R     HAL2     0.900000E-01   1.00800           0   0.00000     -0.301140E-02
     10323 MEMB     84       POPE     H13S     HAL2     0.900000E-01   1.00800           0   0.00000     -0.301140E-02
     10324 MEMB     84       POPE     C214     CTL2    -0.180000       12.0110           0   0.00000     -0.301140E-02
     10325 MEMB     84       POPE     H14R     HAL2     0.900000E-01   1.00800           0   0.00000     -0.301140E-02
     10326 MEMB     84       POPE     H14S     HAL2     0.900000E-01   1.00800           0   0.00000     -0.301140E-02
     10327 MEMB     84       POPE     C215     CTL2    -0.180000       12.0110           0   0.00000     -0.301140E-02
     10328 MEMB     84       POPE     H15R     HAL2     0.900000E-01   1.00800           0   0.00000     -0.301140E-02
     10329 MEMB     84       POPE     H15S     HAL2     0.900000E-01   1.00800           0   0.00000     -0.301140E-02
     10330 MEMB     84       POPE     C216     CTL2    -0.180000       12.0110           0   0.00000     -0.301140E-02
     10331 MEMB     84       POPE     H16R     HAL2     0.900000E-01   1.00800           0   0.00000     -0.301140E-02
     10332 MEMB     84       POPE     H16S     HAL2     0.900000E-01   1.00800           0   0.00000     -0.301140E-02
     10333 MEMB     84       POPE     C217     CTL2    -0.180000       12.0110           0   0.00000     -0.301140E-02
     10334 MEMB     84       POPE     H17R     HAL2     0.900000E-01   1.00800           0   0.00000     -0.301140E-02
     10335 MEMB     84       POPE     H17S     HAL2     0.900000E-01   1.00800           0   0.00000     -0.301140E-02
     10336 MEMB     84       POPE     C218     CTL3    -0.270000       12.0110           0   0.00000     -0.301140E-02
     10337 MEMB     84       POPE     H18R     HAL3     0.900000E-01   1.00800           0   0.00000     -0.301140E-02
     10338 MEMB     84       POPE     H18S     HAL3     0.900000E-01   1.00800           0   0.00000     -0.301140E-02
     10339 MEMB     84       POPE     H18T     HAL3     0.900000E-01   1.00800           0   0.00000     -0.301140E-02
     10340 MEMB     84       POPE     C33      CTL2    -0.180000       12.0110           0   0.00000     -0.301140E-02
     10341 MEMB     84       POPE     H3X      HAL2     0.900000E-01   1.00800           0   0.00000     -0.301140E-02
     10342 MEMB     84       POPE     H3Y      HAL2     0.900000E-01   1.00800           0   0.00000     -0.301140E-02
     10343 MEMB     84       POPE     C34      CTL2    -0.180000       12.0110           0   0.00000     -0.301140E-02
     10344 MEMB     84       POPE     H4X      HAL2     0.900000E-01   1.00800           0   0.00000     -0.301140E-02
     10345 MEMB     84       POPE     H4Y      HAL2     0.900000E-01   1.00800           0   0.00000     -0.301140E-02
     10346 MEMB     84       POPE     C35      CTL2    -0.180000       12.0110           0   0.00000     -0.301140E-02
     10347 MEMB     84       POPE     H5X      HAL2     0.900000E-01   1.00800           0   0.00000     -0.301140E-02
     10348 MEMB     84       POPE     H5Y      HAL2     0.900000E-01   1.00800           0   0.00000     -0.301140E-02
     10349 MEMB     84       POPE     C36      CTL2    -0.180000       12.0110           0   0.00000     -0.301140E-02
     10350 MEMB     84       POPE     H6X      HAL2     0.900000E-01   1.00800           0   0.00000     -0.301140E-02
     10351 MEMB     84       POPE     H6Y      HAL2     0.900000E-01   1.00800           0   0.00000     -0.301140E-02
     10352 MEMB     84       POPE     C37      CTL2    -0.180000       12.0110           0   0.00000     -0.301140E-02
     10353 MEMB     84       POPE     H7X      HAL2     0.900000E-01   1.00800           0   0.00000     -0.301140E-02
     10354 MEMB     84       POPE     H7Y      HAL2     0.900000E-01   1.00800           0   0.00000     -0.301140E-02
     10355 MEMB     84       POPE     C38      CTL2    -0.180000       12.0110           0   0.00000     -0.301140E-02
     10356 MEMB     84       POPE     H8X      HAL2     0.900000E-01   1.00800           0   0.00000     -0.301140E-02
     10357 MEMB     84       POPE     H8Y      HAL2     0.900000E-01   1.00800           0   0.00000     -0.301140E-02
     10358 MEMB     84       POPE     C39      CTL2    -0.180000       12.0110           0   0.00000     -0.301140E-02
     10359 MEMB     84       POPE     H9X      HAL2     0.900000E-01   1.00800           0   0.00000     -0.301140E-02
     10360 MEMB     84       POPE     H9Y      HAL2     0.900000E-01   1.00800           0   0.00000     -0.301140E-02
     10361 MEMB     84       POPE     C310     CTL2    -0.180000       12.0110           0   0.00000     -0.301140E-02
     10362 MEMB     84       POPE     H10X     HAL2     0.900000E-01   1.00800           0   0.00000     -0.301140E-02
     10363 MEMB     84       POPE     H10Y     HAL2     0.900000E-01   1.00800           0   0.00000     -0.301140E-02
     10364 MEMB     84       POPE     C311     CTL2    -0.180000       12.0110           0   0.00000     -0.301140E-02
     10365 MEMB     84       POPE     H11X     HAL2     0.900000E-01   1.00800           0   0.00000     -0.301140E-02
     10366 MEMB     84       POPE     H11Y     HAL2     0.900000E-01   1.00800           0   0.00000     -0.301140E-02
     10367 MEMB     84       POPE     C312     CTL2    -0.180000       12.0110           0   0.00000     -0.301140E-02
     10368 MEMB     84       POPE     H12X     HAL2     0.900000E-01   1.00800           0   0.00000     -0.301140E-02
     10369 MEMB     84       POPE     H12Y     HAL2     0.900000E-01   1.00800           0   0.00000     -0.301140E-02
     10370 MEMB     84       POPE     C313     CTL2    -0.180000       12.0110           0   0.00000     -0.301140E-02
     10371 MEMB     84       POPE     H13X     HAL2     0.900000E-01   1.00800           0   0.00000     -0.301140E-02
     10372 MEMB     84       POPE     H13Y     HAL2     0.900000E-01   1.00800           0   0.00000     -0.301140E-02
     10373 MEMB     84       POPE     C314     CTL2    -0.180000       12.0110           0   0.00000     -0.301140E-02
     10374 MEMB     84       POPE     H14X     HAL2     0.900000E-01   1.00800           0   0.00000     -0.301140E-02
     10375 MEMB     84       POPE     H14Y     HAL2     0.900000E-01   1.00800           0   0.00000     -0.301140E-02
     10376 MEMB     84       POPE     C315     CTL2    -0.180000       12.0110           0   0.00000     -0.301140E-02
     10377 MEMB     84       POPE     H15X     HAL2     0.900000E-01   1.00800           0   0.00000     -0.301140E-02
     10378 MEMB     84       POPE     H15Y     HAL2     0.900000E-01   1.00800           0   0.00000     -0.301140E-02
     10379 MEMB     84       POPE     C316     CTL3    -0.270000       12.0110           0   0.00000     -0.301140E-02
     10380 MEMB     84       POPE     H16X     HAL3     0.900000E-01   1.00800           0   0.00000     -0.301140E-02
     10381 MEMB     84       POPE     H16Y     HAL3     0.900000E-01   1.00800           0   0.00000     -0.301140E-02
     10382 MEMB     84       POPE     H16Z     HAL3     0.900000E-01   1.00800           0   0.00000     -0.301140E-02
     10383 MEMB     85       POPE     N        NH3L    -0.300000       14.0070           0   0.00000     -0.301140E-02
     10384 MEMB     85       POPE     HN1      HCL      0.330000       1.00800           0   0.00000     -0.301140E-02
     10385 MEMB     85       POPE     HN2      HCL      0.330000       1.00800           0   0.00000     -0.301140E-02
     10386 MEMB     85       POPE     HN3      HCL      0.330000       1.00800           0   0.00000     -0.301140E-02
     10387 MEMB     85       POPE     C12      CTL2     0.130000       12.0110           0   0.00000     -0.301140E-02
     10388 MEMB     85       POPE     H12A     HAL2     0.900000E-01   1.00800           0   0.00000     -0.301140E-02
     10389 MEMB     85       POPE     H12B     HAL2     0.900000E-01   1.00800           0   0.00000     -0.301140E-02
     10390 MEMB     85       POPE     C11      CTL2    -0.800000E-01   12.0110           0   0.00000     -0.301140E-02
     10391 MEMB     85       POPE     H11A     HAL2     0.900000E-01   1.00800           0   0.00000     -0.301140E-02
     10392 MEMB     85       POPE     H11B     HAL2     0.900000E-01   1.00800           0   0.00000     -0.301140E-02
     10393 MEMB     85       POPE     P        PL        1.50000       30.9740           0   0.00000     -0.301140E-02
     10394 MEMB     85       POPE     O13      O2L     -0.780000       15.9994           0   0.00000     -0.301140E-02
     10395 MEMB     85       POPE     O14      O2L     -0.780000       15.9994           0   0.00000     -0.301140E-02
     10396 MEMB     85       POPE     O11      OSLP    -0.570000       15.9994           0   0.00000     -0.301140E-02
     10397 MEMB     85       POPE     O12      OSLP    -0.570000       15.9994           0   0.00000     -0.301140E-02
     10398 MEMB     85       POPE     C1       CTL2    -0.800000E-01   12.0110           0   0.00000     -0.301140E-02
     10399 MEMB     85       POPE     HA       HAL2     0.900000E-01   1.00800           0   0.00000     -0.301140E-02
     10400 MEMB     85       POPE     HB       HAL2     0.900000E-01   1.00800           0   0.00000     -0.301140E-02
     10401 MEMB     85       POPE     C2       CTL1     0.170000       12.0110           0   0.00000     -0.301140E-02
     10402 MEMB     85       POPE     HS       HAL1     0.900000E-01   1.00800           0   0.00000     -0.301140E-02
     10403 MEMB     85       POPE     O21      OSL     -0.490000       15.9994           0   0.00000     -0.301140E-02
     10404 MEMB     85       POPE     C21      CL       0.900000       12.0110           0   0.00000     -0.301140E-02
     10405 MEMB     85       POPE     O22      OBL     -0.630000       15.9994           0   0.00000     -0.301140E-02
     10406 MEMB     85       POPE     C22      CTL2    -0.220000       12.0110           0   0.00000     -0.301140E-02
     10407 MEMB     85       POPE     H2R      HAL2     0.900000E-01   1.00800           0   0.00000     -0.301140E-02
     10408 MEMB     85       POPE     H2S      HAL2     0.900000E-01   1.00800           0   0.00000     -0.301140E-02
     10409 MEMB     85       POPE     C3       CTL2     0.800000E-01   12.0110           0   0.00000     -0.301140E-02
     10410 MEMB     85       POPE     HX       HAL2     0.900000E-01   1.00800           0   0.00000     -0.301140E-02
     10411 MEMB     85       POPE     HY       HAL2     0.900000E-01   1.00800           0   0.00000     -0.301140E-02
     10412 MEMB     85       POPE     O31      OSL     -0.490000       15.9994           0   0.00000     -0.301140E-02
     10413 MEMB     85       POPE     C31      CL       0.900000       12.0110           0   0.00000     -0.301140E-02
     10414 MEMB     85       POPE     O32      OBL     -0.630000       15.9994           0   0.00000     -0.301140E-02
     10415 MEMB     85       POPE     C32      CTL2    -0.220000       12.0110           0   0.00000     -0.301140E-02
     10416 MEMB     85       POPE     H2X      HAL2     0.900000E-01   1.00800           0   0.00000     -0.301140E-02
     10417 MEMB     85       POPE     H2Y      HAL2     0.900000E-01   1.00800           0   0.00000     -0.301140E-02
     10418 MEMB     85       POPE     C23      CTL2    -0.180000       12.0110           0   0.00000     -0.301140E-02
     10419 MEMB     85       POPE     H3R      HAL2     0.900000E-01   1.00800           0   0.00000     -0.301140E-02
     10420 MEMB     85       POPE     H3S      HAL2     0.900000E-01   1.00800           0   0.00000     -0.301140E-02
     10421 MEMB     85       POPE     C24      CTL2    -0.180000       12.0110           0   0.00000     -0.301140E-02
     10422 MEMB     85       POPE     H4R      HAL2     0.900000E-01   1.00800           0   0.00000     -0.301140E-02
     10423 MEMB     85       POPE     H4S      HAL2     0.900000E-01   1.00800           0   0.00000     -0.301140E-02
     10424 MEMB     85       POPE     C25      CTL2    -0.180000       12.0110           0   0.00000     -0.301140E-02
     10425 MEMB     85       POPE     H5R      HAL2     0.900000E-01   1.00800           0   0.00000     -0.301140E-02
     10426 MEMB     85       POPE     H5S      HAL2     0.900000E-01   1.00800           0   0.00000     -0.301140E-02
     10427 MEMB     85       POPE     C26      CTL2    -0.180000       12.0110           0   0.00000     -0.301140E-02
     10428 MEMB     85       POPE     H6R      HAL2     0.900000E-01   1.00800           0   0.00000     -0.301140E-02
     10429 MEMB     85       POPE     H6S      HAL2     0.900000E-01   1.00800           0   0.00000     -0.301140E-02
     10430 MEMB     85       POPE     C27      CTL2    -0.180000       12.0110           0   0.00000     -0.301140E-02
     10431 MEMB     85       POPE     H7R      HAL2     0.900000E-01   1.00800           0   0.00000     -0.301140E-02
     10432 MEMB     85       POPE     H7S      HAL2     0.900000E-01   1.00800           0   0.00000     -0.301140E-02
     10433 MEMB     85       POPE     C28      CTL2    -0.180000       12.0110           0   0.00000     -0.301140E-02
     10434 MEMB     85       POPE     H8R      HAL2     0.900000E-01   1.00800           0   0.00000     -0.301140E-02
     10435 MEMB     85       POPE     H8S      HAL2     0.900000E-01   1.00800           0   0.00000     -0.301140E-02
     10436 MEMB     85       POPE     C29      CEL1    -0.150000       12.0110           0   0.00000     -0.301140E-02
     10437 MEMB     85       POPE     H91      HEL1     0.150000       1.00800           0   0.00000     -0.301140E-02
     10438 MEMB     85       POPE     C210     CEL1    -0.150000       12.0110           0   0.00000     -0.301140E-02
     10439 MEMB     85       POPE     H101     HEL1     0.150000       1.00800           0   0.00000     -0.301140E-02
     10440 MEMB     85       POPE     C211     CTL2    -0.180000       12.0110           0   0.00000     -0.301140E-02
     10441 MEMB     85       POPE     H11R     HAL2     0.900000E-01   1.00800           0   0.00000     -0.301140E-02
     10442 MEMB     85       POPE     H11S     HAL2     0.900000E-01   1.00800           0   0.00000     -0.301140E-02
     10443 MEMB     85       POPE     C212     CTL2    -0.180000       12.0110           0   0.00000     -0.301140E-02
     10444 MEMB     85       POPE     H12R     HAL2     0.900000E-01   1.00800           0   0.00000     -0.301140E-02
     10445 MEMB     85       POPE     H12S     HAL2     0.900000E-01   1.00800           0   0.00000     -0.301140E-02
     10446 MEMB     85       POPE     C213     CTL2    -0.180000       12.0110           0   0.00000     -0.301140E-02
     10447 MEMB     85       POPE     H13R     HAL2     0.900000E-01   1.00800           0   0.00000     -0.301140E-02
     10448 MEMB     85       POPE     H13S     HAL2     0.900000E-01   1.00800           0   0.00000     -0.301140E-02
     10449 MEMB     85       POPE     C214     CTL2    -0.180000       12.0110           0   0.00000     -0.301140E-02
     10450 MEMB     85       POPE     H14R     HAL2     0.900000E-01   1.00800           0   0.00000     -0.301140E-02
     10451 MEMB     85       POPE     H14S     HAL2     0.900000E-01   1.00800           0   0.00000     -0.301140E-02
     10452 MEMB     85       POPE     C215     CTL2    -0.180000       12.0110           0   0.00000     -0.301140E-02
     10453 MEMB     85       POPE     H15R     HAL2     0.900000E-01   1.00800           0   0.00000     -0.301140E-02
     10454 MEMB     85       POPE     H15S     HAL2     0.900000E-01   1.00800           0   0.00000     -0.301140E-02
     10455 MEMB     85       POPE     C216     CTL2    -0.180000       12.0110           0   0.00000     -0.301140E-02
     10456 MEMB     85       POPE     H16R     HAL2     0.900000E-01   1.00800           0   0.00000     -0.301140E-02
     10457 MEMB     85       POPE     H16S     HAL2     0.900000E-01   1.00800           0   0.00000     -0.301140E-02
     10458 MEMB     85       POPE     C217     CTL2    -0.180000       12.0110           0   0.00000     -0.301140E-02
     10459 MEMB     85       POPE     H17R     HAL2     0.900000E-01   1.00800           0   0.00000     -0.301140E-02
     10460 MEMB     85       POPE     H17S     HAL2     0.900000E-01   1.00800           0   0.00000     -0.301140E-02
     10461 MEMB     85       POPE     C218     CTL3    -0.270000       12.0110           0   0.00000     -0.301140E-02
     10462 MEMB     85       POPE     H18R     HAL3     0.900000E-01   1.00800           0   0.00000     -0.301140E-02
     10463 MEMB     85       POPE     H18S     HAL3     0.900000E-01   1.00800           0   0.00000     -0.301140E-02
     10464 MEMB     85       POPE     H18T     HAL3     0.900000E-01   1.00800           0   0.00000     -0.301140E-02
     10465 MEMB     85       POPE     C33      CTL2    -0.180000       12.0110           0   0.00000     -0.301140E-02
     10466 MEMB     85       POPE     H3X      HAL2     0.900000E-01   1.00800           0   0.00000     -0.301140E-02
     10467 MEMB     85       POPE     H3Y      HAL2     0.900000E-01   1.00800           0   0.00000     -0.301140E-02
     10468 MEMB     85       POPE     C34      CTL2    -0.180000       12.0110           0   0.00000     -0.301140E-02
     10469 MEMB     85       POPE     H4X      HAL2     0.900000E-01   1.00800           0   0.00000     -0.301140E-02
     10470 MEMB     85       POPE     H4Y      HAL2     0.900000E-01   1.00800           0   0.00000     -0.301140E-02
     10471 MEMB     85       POPE     C35      CTL2    -0.180000       12.0110           0   0.00000     -0.301140E-02
     10472 MEMB     85       POPE     H5X      HAL2     0.900000E-01   1.00800           0   0.00000     -0.301140E-02
     10473 MEMB     85       POPE     H5Y      HAL2     0.900000E-01   1.00800           0   0.00000     -0.301140E-02
     10474 MEMB     85       POPE     C36      CTL2    -0.180000       12.0110           0   0.00000     -0.301140E-02
     10475 MEMB     85       POPE     H6X      HAL2     0.900000E-01   1.00800           0   0.00000     -0.301140E-02
     10476 MEMB     85       POPE     H6Y      HAL2     0.900000E-01   1.00800           0   0.00000     -0.301140E-02
     10477 MEMB     85       POPE     C37      CTL2    -0.180000       12.0110           0   0.00000     -0.301140E-02
     10478 MEMB     85       POPE     H7X      HAL2     0.900000E-01   1.00800           0   0.00000     -0.301140E-02
     10479 MEMB     85       POPE     H7Y      HAL2     0.900000E-01   1.00800           0   0.00000     -0.301140E-02
     10480 MEMB     85       POPE     C38      CTL2    -0.180000       12.0110           0   0.00000     -0.301140E-02
     10481 MEMB     85       POPE     H8X      HAL2     0.900000E-01   1.00800           0   0.00000     -0.301140E-02
     10482 MEMB     85       POPE     H8Y      HAL2     0.900000E-01   1.00800           0   0.00000     -0.301140E-02
     10483 MEMB     85       POPE     C39      CTL2    -0.180000       12.0110           0   0.00000     -0.301140E-02
     10484 MEMB     85       POPE     H9X      HAL2     0.900000E-01   1.00800           0   0.00000     -0.301140E-02
     10485 MEMB     85       POPE     H9Y      HAL2     0.900000E-01   1.00800           0   0.00000     -0.301140E-02
     10486 MEMB     85       POPE     C310     CTL2    -0.180000       12.0110           0   0.00000     -0.301140E-02
     10487 MEMB     85       POPE     H10X     HAL2     0.900000E-01   1.00800           0   0.00000     -0.301140E-02
     10488 MEMB     85       POPE     H10Y     HAL2     0.900000E-01   1.00800           0   0.00000     -0.301140E-02
     10489 MEMB     85       POPE     C311     CTL2    -0.180000       12.0110           0   0.00000     -0.301140E-02
     10490 MEMB     85       POPE     H11X     HAL2     0.900000E-01   1.00800           0   0.00000     -0.301140E-02
     10491 MEMB     85       POPE     H11Y     HAL2     0.900000E-01   1.00800           0   0.00000     -0.301140E-02
     10492 MEMB     85       POPE     C312     CTL2    -0.180000       12.0110           0   0.00000     -0.301140E-02
     10493 MEMB     85       POPE     H12X     HAL2     0.900000E-01   1.00800           0   0.00000     -0.301140E-02
     10494 MEMB     85       POPE     H12Y     HAL2     0.900000E-01   1.00800           0   0.00000     -0.301140E-02
     10495 MEMB     85       POPE     C313     CTL2    -0.180000       12.0110           0   0.00000     -0.301140E-02
     10496 MEMB     85       POPE     H13X     HAL2     0.900000E-01   1.00800           0   0.00000     -0.301140E-02
     10497 MEMB     85       POPE     H13Y     HAL2     0.900000E-01   1.00800           0   0.00000     -0.301140E-02
     10498 MEMB     85       POPE     C314     CTL2    -0.180000       12.0110           0   0.00000     -0.301140E-02
     10499 MEMB     85       POPE     H14X     HAL2     0.900000E-01   1.00800           0   0.00000     -0.301140E-02
     10500 MEMB     85       POPE     H14Y     HAL2     0.900000E-01   1.00800           0   0.00000     -0.301140E-02
     10501 MEMB     85       POPE     C315     CTL2    -0.180000       12.0110           0   0.00000     -0.301140E-02
     10502 MEMB     85       POPE     H15X     HAL2     0.900000E-01   1.00800           0   0.00000     -0.301140E-02
     10503 MEMB     85       POPE     H15Y     HAL2     0.900000E-01   1.00800           0   0.00000     -0.301140E-02
     10504 MEMB     85       POPE     C316     CTL3    -0.270000       12.0110           0   0.00000     -0.301140E-02
     10505 MEMB     85       POPE     H16X     HAL3     0.900000E-01   1.00800           0   0.00000     -0.301140E-02
     10506 MEMB     85       POPE     H16Y     HAL3     0.900000E-01   1.00800           0   0.00000     -0.301140E-02
     10507 MEMB     85       POPE     H16Z     HAL3     0.900000E-01   1.00800           0   0.00000     -0.301140E-02
     10508 MEMB     86       QMPE     N        NH3L    -0.300000       14.0070           0   0.00000     -0.301140E-02
     10509 MEMB     86       QMPE     HN1      HCL      0.330000       1.00800           0   0.00000     -0.301140E-02
     10510 MEMB     86       QMPE     HN2      HCL      0.330000       1.00800           0   0.00000     -0.301140E-02
     10511 MEMB     86       QMPE     HN3      HCL      0.330000       1.00800           0   0.00000     -0.301140E-02
     10512 MEMB     86       QMPE     C12      CTL2     0.130000       12.0110           0   0.00000     -0.301140E-02
     10513 MEMB     86       QMPE     H12A     HAL2     0.900000E-01   1.00800           0   0.00000     -0.301140E-02
     10514 MEMB     86       QMPE     H12B     HAL2     0.900000E-01   1.00800           0   0.00000     -0.301140E-02
     10515 MEMB     86       QMPE     C11      CTL2    -0.800000E-01   12.0110           0   0.00000     -0.301140E-02
     10516 MEMB     86       QMPE     H11A     HAL2     0.900000E-01   1.00800           0   0.00000     -0.301140E-02
     10517 MEMB     86       QMPE     H11B     HAL2     0.900000E-01   1.00800           0   0.00000     -0.301140E-02
     10518 MEMB     86       QMPE     P        PL        1.50000       30.9740           0   0.00000     -0.301140E-02
     10519 MEMB     86       QMPE     O13      O2L     -0.780000       15.9994           0   0.00000     -0.301140E-02
     10520 MEMB     86       QMPE     O14      O2L     -0.780000       15.9994           0   0.00000     -0.301140E-02
     10521 MEMB     86       QMPE     O11      OSLP    -0.570000       15.9994           0   0.00000     -0.301140E-02
     10522 MEMB     86       QMPE     O12      OSLP    -0.570000       15.9994           0   0.00000     -0.301140E-02
     10523 MEMB     86       QMPE     C1       CTL2    -0.800000E-01   12.0110           0   0.00000     -0.301140E-02
     10524 MEMB     86       QMPE     HA       HAL2     0.900000E-01   1.00800           0   0.00000     -0.301140E-02
     10525 MEMB     86       QMPE     HB       HAL2     0.900000E-01   1.00800           0   0.00000     -0.301140E-02
     10526 MEMB     86       QMPE     C2       CTL1     0.170000       12.0110           0   0.00000     -0.301140E-02
     10527 MEMB     86       QMPE     HS       HAL1     0.900000E-01   1.00800           0   0.00000     -0.301140E-02
     10528 MEMB     86       QMPE     O21      OSL     -0.490000       15.9994           0   0.00000     -0.301140E-02
     10529 MEMB     86       QMPE     C21      CL       0.900000       12.0110           0   0.00000     -0.301140E-02
     10530 MEMB     86       QMPE     O22      OBL     -0.630000       15.9994           0   0.00000     -0.301140E-02
     10531 MEMB     86       QMPE     C22      CTL2    -0.220000       12.0110           0   0.00000     -0.301140E-02
     10532 MEMB     86       QMPE     H2R      HAL2     0.900000E-01   1.00800           0   0.00000     -0.301140E-02
     10533 MEMB     86       QMPE     H2S      HAL2     0.900000E-01   1.00800           0   0.00000     -0.301140E-02
     10534 MEMB     86       QMPE     C3       CTL2     0.800000E-01   12.0110           0   0.00000     -0.301140E-02
     10535 MEMB     86       QMPE     HX       HAL2     0.900000E-01   1.00800           0   0.00000     -0.301140E-02
     10536 MEMB     86       QMPE     HY       HAL2     0.900000E-01   1.00800           0   0.00000     -0.301140E-02
     10537 MEMB     86       QMPE     O31      OSL     -0.490000       15.9994           0   0.00000     -0.301140E-02
     10538 MEMB     86       QMPE     C31      CL       0.900000       12.0110           0   0.00000     -0.301140E-02
     10539 MEMB     86       QMPE     O32      OBL     -0.630000       15.9994           0   0.00000     -0.301140E-02
     10540 MEMB     86       QMPE     C32      CTL2    -0.220000       12.0110           0   0.00000     -0.301140E-02
     10541 MEMB     86       QMPE     H2X      HAL2     0.900000E-01   1.00800           0   0.00000     -0.301140E-02
     10542 MEMB     86       QMPE     H2Y      HAL2     0.900000E-01   1.00800           0   0.00000     -0.301140E-02
     10543 MEMB     86       QMPE     C23      CTL2    -0.180000       12.0110           0   0.00000     -0.301140E-02
     10544 MEMB     86       QMPE     H3R      HAL2     0.900000E-01   1.00800           0   0.00000     -0.301140E-02
     10545 MEMB     86       QMPE     H3S      HAL2     0.900000E-01   1.00800           0   0.00000     -0.301140E-02
     10546 MEMB     86       QMPE     C24      CTL2    -0.180000       12.0110           0   0.00000     -0.301140E-02
     10547 MEMB     86       QMPE     H4R      HAL2     0.900000E-01   1.00800           0   0.00000     -0.301140E-02
     10548 MEMB     86       QMPE     H4S      HAL2     0.900000E-01   1.00800           0   0.00000     -0.301140E-02
     10549 MEMB     86       QMPE     C25      CTL2    -0.180000       12.0110           0   0.00000     -0.301140E-02
     10550 MEMB     86       QMPE     H5R      HAL2     0.900000E-01   1.00800           0   0.00000     -0.301140E-02
     10551 MEMB     86       QMPE     H5S      HAL2     0.900000E-01   1.00800           0   0.00000     -0.301140E-02
     10552 MEMB     86       QMPE     C26      CTL2    -0.180000       12.0110           0   0.00000     -0.301140E-02
     10553 MEMB     86       QMPE     H6R      HAL2     0.900000E-01   1.00800           0   0.00000     -0.301140E-02
     10554 MEMB     86       QMPE     H6S      HAL2     0.900000E-01   1.00800           0   0.00000     -0.301140E-02
     10555 MEMB     86       QMPE     C27      CTL2    -0.180000       12.0110           0   0.00000     -0.301140E-02
     10556 MEMB     86       QMPE     H7R      HAL2     0.900000E-01   1.00800           0   0.00000     -0.301140E-02
     10557 MEMB     86       QMPE     H7S      HAL2     0.900000E-01   1.00800           0   0.00000     -0.301140E-02
     10558 MEMB     86       QMPE     C28      CTL2    -0.180000       12.0110           0   0.00000     -0.301140E-02
     10559 MEMB     86       QMPE     H8R      HAL2     0.900000E-01   1.00800           0   0.00000     -0.301140E-02
     10560 MEMB     86       QMPE     H8S      HAL2     0.900000E-01   1.00800           0   0.00000     -0.301140E-02
     10561 MEMB     86       QMPE     C29      CG3RC1  -0.900000E-01   12.0110           0   0.00000     -0.301140E-02
     10562 MEMB     86       QMPE     H9R      HGA1     0.900000E-01   1.00800           0   0.00000     -0.301140E-02
     10563 MEMB     86       QMPE     C217     CG3C31  -0.180000       12.0110           0   0.00000     -0.301140E-02
     10564 MEMB     86       QMPE     H17R     HGA2     0.900000E-01   1.00800           0   0.00000     -0.301140E-02
     10565 MEMB     86       QMPE     H17S     HGA2     0.900000E-01   1.00800           0   0.00000     -0.301140E-02
     10566 MEMB     86       QMPE     C210     CG3RC1  -0.900000E-01   12.0110           0   0.00000     -0.301140E-02
     10567 MEMB     86       QMPE     H10R     HGA1     0.900000E-01   1.00800           0   0.00000     -0.301140E-02
     10568 MEMB     86       QMPE     C211     CTL2    -0.180000       12.0110           0   0.00000     -0.301140E-02
     10569 MEMB     86       QMPE     H11R     HAL2     0.900000E-01   1.00800           0   0.00000     -0.301140E-02
     10570 MEMB     86       QMPE     H11S     HAL2     0.900000E-01   1.00800           0   0.00000     -0.301140E-02
     10571 MEMB     86       QMPE     C212     CTL2    -0.180000       12.0110           0   0.00000     -0.301140E-02
     10572 MEMB     86       QMPE     H12R     HAL2     0.900000E-01   1.00800           0   0.00000     -0.301140E-02
     10573 MEMB     86       QMPE     H12S     HAL2     0.900000E-01   1.00800           0   0.00000     -0.301140E-02
     10574 MEMB     86       QMPE     C213     CTL2    -0.180000       12.0110           0   0.00000     -0.301140E-02
     10575 MEMB     86       QMPE     H13R     HAL2     0.900000E-01   1.00800           0   0.00000     -0.301140E-02
     10576 MEMB     86       QMPE     H13S     HAL2     0.900000E-01   1.00800           0   0.00000     -0.301140E-02
     10577 MEMB     86       QMPE     C214     CTL2    -0.180000       12.0110           0   0.00000     -0.301140E-02
     10578 MEMB     86       QMPE     H14R     HAL2     0.900000E-01   1.00800           0   0.00000     -0.301140E-02
     10579 MEMB     86       QMPE     H14S     HAL2     0.900000E-01   1.00800           0   0.00000     -0.301140E-02
     10580 MEMB     86       QMPE     C215     CTL2    -0.180000       12.0110           0   0.00000     -0.301140E-02
     10581 MEMB     86       QMPE     H15R     HAL2     0.900000E-01   1.00800           0   0.00000     -0.301140E-02
     10582 MEMB     86       QMPE     H15S     HAL2     0.900000E-01   1.00800           0   0.00000     -0.301140E-02
     10583 MEMB     86       QMPE     C216     CTL3    -0.270000       12.0110           0   0.00000     -0.301140E-02
     10584 MEMB     86       QMPE     H16R     HAL3     0.900000E-01   1.00800           0   0.00000     -0.301140E-02
     10585 MEMB     86       QMPE     H16S     HAL3     0.900000E-01   1.00800           0   0.00000     -0.301140E-02
     10586 MEMB     86       QMPE     H16T     HAL3     0.900000E-01   1.00800           0   0.00000     -0.301140E-02
     10587 MEMB     86       QMPE     C33      CTL2    -0.180000       12.0110           0   0.00000     -0.301140E-02
     10588 MEMB     86       QMPE     H3X      HAL2     0.900000E-01   1.00800           0   0.00000     -0.301140E-02
     10589 MEMB     86       QMPE     H3Y      HAL2     0.900000E-01   1.00800           0   0.00000     -0.301140E-02
     10590 MEMB     86       QMPE     C34      CTL2    -0.180000       12.0110           0   0.00000     -0.301140E-02
     10591 MEMB     86       QMPE     H4X      HAL2     0.900000E-01   1.00800           0   0.00000     -0.301140E-02
     10592 MEMB     86       QMPE     H4Y      HAL2     0.900000E-01   1.00800           0   0.00000     -0.301140E-02
     10593 MEMB     86       QMPE     C35      CTL2    -0.180000       12.0110           0   0.00000     -0.301140E-02
     10594 MEMB     86       QMPE     H5X      HAL2     0.900000E-01   1.00800           0   0.00000     -0.301140E-02
     10595 MEMB     86       QMPE     H5Y      HAL2     0.900000E-01   1.00800           0   0.00000     -0.301140E-02
     10596 MEMB     86       QMPE     C36      CTL2    -0.180000       12.0110           0   0.00000     -0.301140E-02
     10597 MEMB     86       QMPE     H6X      HAL2     0.900000E-01   1.00800           0   0.00000     -0.301140E-02
     10598 MEMB     86       QMPE     H6Y      HAL2     0.900000E-01   1.00800           0   0.00000     -0.301140E-02
     10599 MEMB     86       QMPE     C37      CTL2    -0.180000       12.0110           0   0.00000     -0.301140E-02
     10600 MEMB     86       QMPE     H7X      HAL2     0.900000E-01   1.00800           0   0.00000     -0.301140E-02
     10601 MEMB     86       QMPE     H7Y      HAL2     0.900000E-01   1.00800           0   0.00000     -0.301140E-02
     10602 MEMB     86       QMPE     C38      CTL2    -0.180000       12.0110           0   0.00000     -0.301140E-02
     10603 MEMB     86       QMPE     H8X      HAL2     0.900000E-01   1.00800           0   0.00000     -0.301140E-02
     10604 MEMB     86       QMPE     H8Y      HAL2     0.900000E-01   1.00800           0   0.00000     -0.301140E-02
     10605 MEMB     86       QMPE     C39      CTL2    -0.180000       12.0110           0   0.00000     -0.301140E-02
     10606 MEMB     86       QMPE     H9X      HAL2     0.900000E-01   1.00800           0   0.00000     -0.301140E-02
     10607 MEMB     86       QMPE     H9Y      HAL2     0.900000E-01   1.00800           0   0.00000     -0.301140E-02
     10608 MEMB     86       QMPE     C310     CTL2    -0.180000       12.0110           0   0.00000     -0.301140E-02
     10609 MEMB     86       QMPE     H10X     HAL2     0.900000E-01   1.00800           0   0.00000     -0.301140E-02
     10610 MEMB     86       QMPE     H10Y     HAL2     0.900000E-01   1.00800           0   0.00000     -0.301140E-02
     10611 MEMB     86       QMPE     C311     CTL2    -0.180000       12.0110           0   0.00000     -0.301140E-02
     10612 MEMB     86       QMPE     H11X     HAL2     0.900000E-01   1.00800           0   0.00000     -0.301140E-02
     10613 MEMB     86       QMPE     H11Y     HAL2     0.900000E-01   1.00800           0   0.00000     -0.301140E-02
     10614 MEMB     86       QMPE     C312     CTL2    -0.180000       12.0110           0   0.00000     -0.301140E-02
     10615 MEMB     86       QMPE     H12X     HAL2     0.900000E-01   1.00800           0   0.00000     -0.301140E-02
     10616 MEMB     86       QMPE     H12Y     HAL2     0.900000E-01   1.00800           0   0.00000     -0.301140E-02
     10617 MEMB     86       QMPE     C313     CTL2    -0.180000       12.0110           0   0.00000     -0.301140E-02
     10618 MEMB     86       QMPE     H13X     HAL2     0.900000E-01   1.00800           0   0.00000     -0.301140E-02
     10619 MEMB     86       QMPE     H13Y     HAL2     0.900000E-01   1.00800           0   0.00000     -0.301140E-02
     10620 MEMB     86       QMPE     C314     CTL2    -0.180000       12.0110           0   0.00000     -0.301140E-02
     10621 MEMB     86       QMPE     H14X     HAL2     0.900000E-01   1.00800           0   0.00000     -0.301140E-02
     10622 MEMB     86       QMPE     H14Y     HAL2     0.900000E-01   1.00800           0   0.00000     -0.301140E-02
     10623 MEMB     86       QMPE     C315     CTL3    -0.270000       12.0110           0   0.00000     -0.301140E-02
     10624 MEMB     86       QMPE     H15X     HAL3     0.900000E-01   1.00800           0   0.00000     -0.301140E-02
     10625 MEMB     86       QMPE     H15Y     HAL3     0.900000E-01   1.00800           0   0.00000     -0.301140E-02
     10626 MEMB     86       QMPE     H15Z     HAL3     0.900000E-01   1.00800           0   0.00000     -0.301140E-02
     10627 MEMB     87       PMPE     N        NH3L    -0.300000       14.0070           0   0.00000     -0.301140E-02
     10628 MEMB     87       PMPE     HN1      HCL      0.330000       1.00800           0   0.00000     -0.301140E-02
     10629 MEMB     87       PMPE     HN2      HCL      0.330000       1.00800           0   0.00000     -0.301140E-02
     10630 MEMB     87       PMPE     HN3      HCL      0.330000       1.00800           0   0.00000     -0.301140E-02
     10631 MEMB     87       PMPE     C12      CTL2     0.130000       12.0110           0   0.00000     -0.301140E-02
     10632 MEMB     87       PMPE     H12A     HAL2     0.900000E-01   1.00800           0   0.00000     -0.301140E-02
     10633 MEMB     87       PMPE     H12B     HAL2     0.900000E-01   1.00800           0   0.00000     -0.301140E-02
     10634 MEMB     87       PMPE     C11      CTL2    -0.800000E-01   12.0110           0   0.00000     -0.301140E-02
     10635 MEMB     87       PMPE     H11A     HAL2     0.900000E-01   1.00800           0   0.00000     -0.301140E-02
     10636 MEMB     87       PMPE     H11B     HAL2     0.900000E-01   1.00800           0   0.00000     -0.301140E-02
     10637 MEMB     87       PMPE     P        PL        1.50000       30.9740           0   0.00000     -0.301140E-02
     10638 MEMB     87       PMPE     O13      O2L     -0.780000       15.9994           0   0.00000     -0.301140E-02
     10639 MEMB     87       PMPE     O14      O2L     -0.780000       15.9994           0   0.00000     -0.301140E-02
     10640 MEMB     87       PMPE     O11      OSLP    -0.570000       15.9994           0   0.00000     -0.301140E-02
     10641 MEMB     87       PMPE     O12      OSLP    -0.570000       15.9994           0   0.00000     -0.301140E-02
     10642 MEMB     87       PMPE     C1       CTL2    -0.800000E-01   12.0110           0   0.00000     -0.301140E-02
     10643 MEMB     87       PMPE     HA       HAL2     0.900000E-01   1.00800           0   0.00000     -0.301140E-02
     10644 MEMB     87       PMPE     HB       HAL2     0.900000E-01   1.00800           0   0.00000     -0.301140E-02
     10645 MEMB     87       PMPE     C2       CTL1     0.170000       12.0110           0   0.00000     -0.301140E-02
     10646 MEMB     87       PMPE     HS       HAL1     0.900000E-01   1.00800           0   0.00000     -0.301140E-02
     10647 MEMB     87       PMPE     O21      OSL     -0.490000       15.9994           0   0.00000     -0.301140E-02
     10648 MEMB     87       PMPE     C21      CL       0.900000       12.0110           0   0.00000     -0.301140E-02
     10649 MEMB     87       PMPE     O22      OBL     -0.630000       15.9994           0   0.00000     -0.301140E-02
     10650 MEMB     87       PMPE     C22      CTL2    -0.220000       12.0110           0   0.00000     -0.301140E-02
     10651 MEMB     87       PMPE     H2R      HAL2     0.900000E-01   1.00800           0   0.00000     -0.301140E-02
     10652 MEMB     87       PMPE     H2S      HAL2     0.900000E-01   1.00800           0   0.00000     -0.301140E-02
     10653 MEMB     87       PMPE     C3       CTL2     0.800000E-01   12.0110           0   0.00000     -0.301140E-02
     10654 MEMB     87       PMPE     HX       HAL2     0.900000E-01   1.00800           0   0.00000     -0.301140E-02
     10655 MEMB     87       PMPE     HY       HAL2     0.900000E-01   1.00800           0   0.00000     -0.301140E-02
     10656 MEMB     87       PMPE     O31      OSL     -0.490000       15.9994           0   0.00000     -0.301140E-02
     10657 MEMB     87       PMPE     C31      CL       0.900000       12.0110           0   0.00000     -0.301140E-02
     10658 MEMB     87       PMPE     O32      OBL     -0.630000       15.9994           0   0.00000     -0.301140E-02
     10659 MEMB     87       PMPE     C32      CTL2    -0.220000       12.0110           0   0.00000     -0.301140E-02
     10660 MEMB     87       PMPE     H2X      HAL2     0.900000E-01   1.00800           0   0.00000     -0.301140E-02
     10661 MEMB     87       PMPE     H2Y      HAL2     0.900000E-01   1.00800           0   0.00000     -0.301140E-02
     10662 MEMB     87       PMPE     C23      CTL2    -0.180000       12.0110           0   0.00000     -0.301140E-02
     10663 MEMB     87       PMPE     H3R      HAL2     0.900000E-01   1.00800           0   0.00000     -0.301140E-02
     10664 MEMB     87       PMPE     H3S      HAL2     0.900000E-01   1.00800           0   0.00000     -0.301140E-02
     10665 MEMB     87       PMPE     C24      CTL2    -0.180000       12.0110           0   0.00000     -0.301140E-02
     10666 MEMB     87       PMPE     H4R      HAL2     0.900000E-01   1.00800           0   0.00000     -0.301140E-02
     10667 MEMB     87       PMPE     H4S      HAL2     0.900000E-01   1.00800           0   0.00000     -0.301140E-02
     10668 MEMB     87       PMPE     C25      CTL2    -0.180000       12.0110           0   0.00000     -0.301140E-02
     10669 MEMB     87       PMPE     H5R      HAL2     0.900000E-01   1.00800           0   0.00000     -0.301140E-02
     10670 MEMB     87       PMPE     H5S      HAL2     0.900000E-01   1.00800           0   0.00000     -0.301140E-02
     10671 MEMB     87       PMPE     C26      CTL2    -0.180000       12.0110           0   0.00000     -0.301140E-02
     10672 MEMB     87       PMPE     H6R      HAL2     0.900000E-01   1.00800           0   0.00000     -0.301140E-02
     10673 MEMB     87       PMPE     H6S      HAL2     0.900000E-01   1.00800           0   0.00000     -0.301140E-02
     10674 MEMB     87       PMPE     C27      CTL2    -0.180000       12.0110           0   0.00000     -0.301140E-02
     10675 MEMB     87       PMPE     H7R      HAL2     0.900000E-01   1.00800           0   0.00000     -0.301140E-02
     10676 MEMB     87       PMPE     H7S      HAL2     0.900000E-01   1.00800           0   0.00000     -0.301140E-02
     10677 MEMB     87       PMPE     C28      CTL2    -0.180000       12.0110           0   0.00000     -0.301140E-02
     10678 MEMB     87       PMPE     H8R      HAL2     0.900000E-01   1.00800           0   0.00000     -0.301140E-02
     10679 MEMB     87       PMPE     H8S      HAL2     0.900000E-01   1.00800           0   0.00000     -0.301140E-02
     10680 MEMB     87       PMPE     C29      CG3RC1  -0.900000E-01   12.0110           0   0.00000     -0.301140E-02
     10681 MEMB     87       PMPE     H9R      HGA1     0.900000E-01   1.00800           0   0.00000     -0.301140E-02
     10682 MEMB     87       PMPE     C217     CG3C31  -0.180000       12.0110           0   0.00000     -0.301140E-02
     10683 MEMB     87       PMPE     H17R     HGA2     0.900000E-01   1.00800           0   0.00000     -0.301140E-02
     10684 MEMB     87       PMPE     H17S     HGA2     0.900000E-01   1.00800           0   0.00000     -0.301140E-02
     10685 MEMB     87       PMPE     C210     CG3RC1  -0.900000E-01   12.0110           0   0.00000     -0.301140E-02
     10686 MEMB     87       PMPE     H10R     HGA1     0.900000E-01   1.00800           0   0.00000     -0.301140E-02
     10687 MEMB     87       PMPE     C211     CTL2    -0.180000       12.0110           0   0.00000     -0.301140E-02
     10688 MEMB     87       PMPE     H11R     HAL2     0.900000E-01   1.00800           0   0.00000     -0.301140E-02
     10689 MEMB     87       PMPE     H11S     HAL2     0.900000E-01   1.00800           0   0.00000     -0.301140E-02
     10690 MEMB     87       PMPE     C212     CTL2    -0.180000       12.0110           0   0.00000     -0.301140E-02
     10691 MEMB     87       PMPE     H12R     HAL2     0.900000E-01   1.00800           0   0.00000     -0.301140E-02
     10692 MEMB     87       PMPE     H12S     HAL2     0.900000E-01   1.00800           0   0.00000     -0.301140E-02
     10693 MEMB     87       PMPE     C213     CTL2    -0.180000       12.0110           0   0.00000     -0.301140E-02
     10694 MEMB     87       PMPE     H13R     HAL2     0.900000E-01   1.00800           0   0.00000     -0.301140E-02
     10695 MEMB     87       PMPE     H13S     HAL2     0.900000E-01   1.00800           0   0.00000     -0.301140E-02
     10696 MEMB     87       PMPE     C214     CTL2    -0.180000       12.0110           0   0.00000     -0.301140E-02
     10697 MEMB     87       PMPE     H14R     HAL2     0.900000E-01   1.00800           0   0.00000     -0.301140E-02
     10698 MEMB     87       PMPE     H14S     HAL2     0.900000E-01   1.00800           0   0.00000     -0.301140E-02
     10699 MEMB     87       PMPE     C215     CTL2    -0.180000       12.0110           0   0.00000     -0.301140E-02
     10700 MEMB     87       PMPE     H15R     HAL2     0.900000E-01   1.00800           0   0.00000     -0.301140E-02
     10701 MEMB     87       PMPE     H15S     HAL2     0.900000E-01   1.00800           0   0.00000     -0.301140E-02
     10702 MEMB     87       PMPE     C216     CTL3    -0.270000       12.0110           0   0.00000     -0.301140E-02
     10703 MEMB     87       PMPE     H16R     HAL3     0.900000E-01   1.00800           0   0.00000     -0.301140E-02
     10704 MEMB     87       PMPE     H16S     HAL3     0.900000E-01   1.00800           0   0.00000     -0.301140E-02
     10705 MEMB     87       PMPE     H16T     HAL3     0.900000E-01   1.00800           0   0.00000     -0.301140E-02
     10706 MEMB     87       PMPE     C33      CTL2    -0.180000       12.0110           0   0.00000     -0.301140E-02
     10707 MEMB     87       PMPE     H3X      HAL2     0.900000E-01   1.00800           0   0.00000     -0.301140E-02
     10708 MEMB     87       PMPE     H3Y      HAL2     0.900000E-01   1.00800           0   0.00000     -0.301140E-02
     10709 MEMB     87       PMPE     C34      CTL2    -0.180000       12.0110           0   0.00000     -0.301140E-02
     10710 MEMB     87       PMPE     H4X      HAL2     0.900000E-01   1.00800           0   0.00000     -0.301140E-02
     10711 MEMB     87       PMPE     H4Y      HAL2     0.900000E-01   1.00800           0   0.00000     -0.301140E-02
     10712 MEMB     87       PMPE     C35      CTL2    -0.180000       12.0110           0   0.00000     -0.301140E-02
     10713 MEMB     87       PMPE     H5X      HAL2     0.900000E-01   1.00800           0   0.00000     -0.301140E-02
     10714 MEMB     87       PMPE     H5Y      HAL2     0.900000E-01   1.00800           0   0.00000     -0.301140E-02
     10715 MEMB     87       PMPE     C36      CTL2    -0.180000       12.0110           0   0.00000     -0.301140E-02
     10716 MEMB     87       PMPE     H6X      HAL2     0.900000E-01   1.00800           0   0.00000     -0.301140E-02
     10717 MEMB     87       PMPE     H6Y      HAL2     0.900000E-01   1.00800           0   0.00000     -0.301140E-02
     10718 MEMB     87       PMPE     C37      CTL2    -0.180000       12.0110           0   0.00000     -0.301140E-02
     10719 MEMB     87       PMPE     H7X      HAL2     0.900000E-01   1.00800           0   0.00000     -0.301140E-02
     10720 MEMB     87       PMPE     H7Y      HAL2     0.900000E-01   1.00800           0   0.00000     -0.301140E-02
     10721 MEMB     87       PMPE     C38      CTL2    -0.180000       12.0110           0   0.00000     -0.301140E-02
     10722 MEMB     87       PMPE     H8X      HAL2     0.900000E-01   1.00800           0   0.00000     -0.301140E-02
     10723 MEMB     87       PMPE     H8Y      HAL2     0.900000E-01   1.00800           0   0.00000     -0.301140E-02
     10724 MEMB     87       PMPE     C39      CTL2    -0.180000       12.0110           0   0.00000     -0.301140E-02
     10725 MEMB     87       PMPE     H9X      HAL2     0.900000E-01   1.00800           0   0.00000     -0.301140E-02
     10726 MEMB     87       PMPE     H9Y      HAL2     0.900000E-01   1.00800           0   0.00000     -0.301140E-02
     10727 MEMB     87       PMPE     C310     CTL2    -0.180000       12.0110           0   0.00000     -0.301140E-02
     10728 MEMB     87       PMPE     H10X     HAL2     0.900000E-01   1.00800           0   0.00000     -0.301140E-02
     10729 MEMB     87       PMPE     H10Y     HAL2     0.900000E-01   1.00800           0   0.00000     -0.301140E-02
     10730 MEMB     87       PMPE     C311     CTL2    -0.180000       12.0110           0   0.00000     -0.301140E-02
     10731 MEMB     87       PMPE     H11X     HAL2     0.900000E-01   1.00800           0   0.00000     -0.301140E-02
     10732 MEMB     87       PMPE     H11Y     HAL2     0.900000E-01   1.00800           0   0.00000     -0.301140E-02
     10733 MEMB     87       PMPE     C312     CTL2    -0.180000       12.0110           0   0.00000     -0.301140E-02
     10734 MEMB     87       PMPE     H12X     HAL2     0.900000E-01   1.00800           0   0.00000     -0.301140E-02
     10735 MEMB     87       PMPE     H12Y     HAL2     0.900000E-01   1.00800           0   0.00000     -0.301140E-02
     10736 MEMB     87       PMPE     C313     CTL2    -0.180000       12.0110           0   0.00000     -0.301140E-02
     10737 MEMB     87       PMPE     H13X     HAL2     0.900000E-01   1.00800           0   0.00000     -0.301140E-02
     10738 MEMB     87       PMPE     H13Y     HAL2     0.900000E-01   1.00800           0   0.00000     -0.301140E-02
     10739 MEMB     87       PMPE     C314     CTL2    -0.180000       12.0110           0   0.00000     -0.301140E-02
     10740 MEMB     87       PMPE     H14X     HAL2     0.900000E-01   1.00800           0   0.00000     -0.301140E-02
     10741 MEMB     87       PMPE     H14Y     HAL2     0.900000E-01   1.00800           0   0.00000     -0.301140E-02
     10742 MEMB     87       PMPE     C315     CTL2    -0.180000       12.0110           0   0.00000     -0.301140E-02
     10743 MEMB     87       PMPE     H15X     HAL2     0.900000E-01   1.00800           0   0.00000     -0.301140E-02
     10744 MEMB     87       PMPE     H15Y     HAL2     0.900000E-01   1.00800           0   0.00000     -0.301140E-02
     10745 MEMB     87       PMPE     C316     CTL3    -0.270000       12.0110           0   0.00000     -0.301140E-02
     10746 MEMB     87       PMPE     H16X     HAL3     0.900000E-01   1.00800           0   0.00000     -0.301140E-02
     10747 MEMB     87       PMPE     H16Y     HAL3     0.900000E-01   1.00800           0   0.00000     -0.301140E-02
     10748 MEMB     87       PMPE     H16Z     HAL3     0.900000E-01   1.00800           0   0.00000     -0.301140E-02
     10749 MEMB     88       PMPE     N        NH3L    -0.300000       14.0070           0   0.00000     -0.301140E-02
     10750 MEMB     88       PMPE     HN1      HCL      0.330000       1.00800           0   0.00000     -0.301140E-02
     10751 MEMB     88       PMPE     HN2      HCL      0.330000       1.00800           0   0.00000     -0.301140E-02
     10752 MEMB     88       PMPE     HN3      HCL      0.330000       1.00800           0   0.00000     -0.301140E-02
     10753 MEMB     88       PMPE     C12      CTL2     0.130000       12.0110           0   0.00000     -0.301140E-02
     10754 MEMB     88       PMPE     H12A     HAL2     0.900000E-01   1.00800           0   0.00000     -0.301140E-02
     10755 MEMB     88       PMPE     H12B     HAL2     0.900000E-01   1.00800           0   0.00000     -0.301140E-02
     10756 MEMB     88       PMPE     C11      CTL2    -0.800000E-01   12.0110           0   0.00000     -0.301140E-02
     10757 MEMB     88       PMPE     H11A     HAL2     0.900000E-01   1.00800           0   0.00000     -0.301140E-02
     10758 MEMB     88       PMPE     H11B     HAL2     0.900000E-01   1.00800           0   0.00000     -0.301140E-02
     10759 MEMB     88       PMPE     P        PL        1.50000       30.9740           0   0.00000     -0.301140E-02
     10760 MEMB     88       PMPE     O13      O2L     -0.780000       15.9994           0   0.00000     -0.301140E-02
     10761 MEMB     88       PMPE     O14      O2L     -0.780000       15.9994           0   0.00000     -0.301140E-02
     10762 MEMB     88       PMPE     O11      OSLP    -0.570000       15.9994           0   0.00000     -0.301140E-02
     10763 MEMB     88       PMPE     O12      OSLP    -0.570000       15.9994           0   0.00000     -0.301140E-02
     10764 MEMB     88       PMPE     C1       CTL2    -0.800000E-01   12.0110           0   0.00000     -0.301140E-02
     10765 MEMB     88       PMPE     HA       HAL2     0.900000E-01   1.00800           0   0.00000     -0.301140E-02
     10766 MEMB     88       PMPE     HB       HAL2     0.900000E-01   1.00800           0   0.00000     -0.301140E-02
     10767 MEMB     88       PMPE     C2       CTL1     0.170000       12.0110           0   0.00000     -0.301140E-02
     10768 MEMB     88       PMPE     HS       HAL1     0.900000E-01   1.00800           0   0.00000     -0.301140E-02
     10769 MEMB     88       PMPE     O21      OSL     -0.490000       15.9994           0   0.00000     -0.301140E-02
     10770 MEMB     88       PMPE     C21      CL       0.900000       12.0110           0   0.00000     -0.301140E-02
     10771 MEMB     88       PMPE     O22      OBL     -0.630000       15.9994           0   0.00000     -0.301140E-02
     10772 MEMB     88       PMPE     C22      CTL2    -0.220000       12.0110           0   0.00000     -0.301140E-02
     10773 MEMB     88       PMPE     H2R      HAL2     0.900000E-01   1.00800           0   0.00000     -0.301140E-02
     10774 MEMB     88       PMPE     H2S      HAL2     0.900000E-01   1.00800           0   0.00000     -0.301140E-02
     10775 MEMB     88       PMPE     C3       CTL2     0.800000E-01   12.0110           0   0.00000     -0.301140E-02
     10776 MEMB     88       PMPE     HX       HAL2     0.900000E-01   1.00800           0   0.00000     -0.301140E-02
     10777 MEMB     88       PMPE     HY       HAL2     0.900000E-01   1.00800           0   0.00000     -0.301140E-02
     10778 MEMB     88       PMPE     O31      OSL     -0.490000       15.9994           0   0.00000     -0.301140E-02
     10779 MEMB     88       PMPE     C31      CL       0.900000       12.0110           0   0.00000     -0.301140E-02
     10780 MEMB     88       PMPE     O32      OBL     -0.630000       15.9994           0   0.00000     -0.301140E-02
     10781 MEMB     88       PMPE     C32      CTL2    -0.220000       12.0110           0   0.00000     -0.301140E-02
     10782 MEMB     88       PMPE     H2X      HAL2     0.900000E-01   1.00800           0   0.00000     -0.301140E-02
     10783 MEMB     88       PMPE     H2Y      HAL2     0.900000E-01   1.00800           0   0.00000     -0.301140E-02
     10784 MEMB     88       PMPE     C23      CTL2    -0.180000       12.0110           0   0.00000     -0.301140E-02
     10785 MEMB     88       PMPE     H3R      HAL2     0.900000E-01   1.00800           0   0.00000     -0.301140E-02
     10786 MEMB     88       PMPE     H3S      HAL2     0.900000E-01   1.00800           0   0.00000     -0.301140E-02
     10787 MEMB     88       PMPE     C24      CTL2    -0.180000       12.0110           0   0.00000     -0.301140E-02
     10788 MEMB     88       PMPE     H4R      HAL2     0.900000E-01   1.00800           0   0.00000     -0.301140E-02
     10789 MEMB     88       PMPE     H4S      HAL2     0.900000E-01   1.00800           0   0.00000     -0.301140E-02
     10790 MEMB     88       PMPE     C25      CTL2    -0.180000       12.0110           0   0.00000     -0.301140E-02
     10791 MEMB     88       PMPE     H5R      HAL2     0.900000E-01   1.00800           0   0.00000     -0.301140E-02
     10792 MEMB     88       PMPE     H5S      HAL2     0.900000E-01   1.00800           0   0.00000     -0.301140E-02
     10793 MEMB     88       PMPE     C26      CTL2    -0.180000       12.0110           0   0.00000     -0.301140E-02
     10794 MEMB     88       PMPE     H6R      HAL2     0.900000E-01   1.00800           0   0.00000     -0.301140E-02
     10795 MEMB     88       PMPE     H6S      HAL2     0.900000E-01   1.00800           0   0.00000     -0.301140E-02
     10796 MEMB     88       PMPE     C27      CTL2    -0.180000       12.0110           0   0.00000     -0.301140E-02
     10797 MEMB     88       PMPE     H7R      HAL2     0.900000E-01   1.00800           0   0.00000     -0.301140E-02
     10798 MEMB     88       PMPE     H7S      HAL2     0.900000E-01   1.00800           0   0.00000     -0.301140E-02
     10799 MEMB     88       PMPE     C28      CTL2    -0.180000       12.0110           0   0.00000     -0.301140E-02
     10800 MEMB     88       PMPE     H8R      HAL2     0.900000E-01   1.00800           0   0.00000     -0.301140E-02
     10801 MEMB     88       PMPE     H8S      HAL2     0.900000E-01   1.00800           0   0.00000     -0.301140E-02
     10802 MEMB     88       PMPE     C29      CG3RC1  -0.900000E-01   12.0110           0   0.00000     -0.301140E-02
     10803 MEMB     88       PMPE     H9R      HGA1     0.900000E-01   1.00800           0   0.00000     -0.301140E-02
     10804 MEMB     88       PMPE     C217     CG3C31  -0.180000       12.0110           0   0.00000     -0.301140E-02
     10805 MEMB     88       PMPE     H17R     HGA2     0.900000E-01   1.00800           0   0.00000     -0.301140E-02
     10806 MEMB     88       PMPE     H17S     HGA2     0.900000E-01   1.00800           0   0.00000     -0.301140E-02
     10807 MEMB     88       PMPE     C210     CG3RC1  -0.900000E-01   12.0110           0   0.00000     -0.301140E-02
     10808 MEMB     88       PMPE     H10R     HGA1     0.900000E-01   1.00800           0   0.00000     -0.301140E-02
     10809 MEMB     88       PMPE     C211     CTL2    -0.180000       12.0110           0   0.00000     -0.301140E-02
     10810 MEMB     88       PMPE     H11R     HAL2     0.900000E-01   1.00800           0   0.00000     -0.301140E-02
     10811 MEMB     88       PMPE     H11S     HAL2     0.900000E-01   1.00800           0   0.00000     -0.301140E-02
     10812 MEMB     88       PMPE     C212     CTL2    -0.180000       12.0110           0   0.00000     -0.301140E-02
     10813 MEMB     88       PMPE     H12R     HAL2     0.900000E-01   1.00800           0   0.00000     -0.301140E-02
     10814 MEMB     88       PMPE     H12S     HAL2     0.900000E-01   1.00800           0   0.00000     -0.301140E-02
     10815 MEMB     88       PMPE     C213     CTL2    -0.180000       12.0110           0   0.00000     -0.301140E-02
     10816 MEMB     88       PMPE     H13R     HAL2     0.900000E-01   1.00800           0   0.00000     -0.301140E-02
     10817 MEMB     88       PMPE     H13S     HAL2     0.900000E-01   1.00800           0   0.00000     -0.301140E-02
     10818 MEMB     88       PMPE     C214     CTL2    -0.180000       12.0110           0   0.00000     -0.301140E-02
     10819 MEMB     88       PMPE     H14R     HAL2     0.900000E-01   1.00800           0   0.00000     -0.301140E-02
     10820 MEMB     88       PMPE     H14S     HAL2     0.900000E-01   1.00800           0   0.00000     -0.301140E-02
     10821 MEMB     88       PMPE     C215     CTL2    -0.180000       12.0110           0   0.00000     -0.301140E-02
     10822 MEMB     88       PMPE     H15R     HAL2     0.900000E-01   1.00800           0   0.00000     -0.301140E-02
     10823 MEMB     88       PMPE     H15S     HAL2     0.900000E-01   1.00800           0   0.00000     -0.301140E-02
     10824 MEMB     88       PMPE     C216     CTL3    -0.270000       12.0110           0   0.00000     -0.301140E-02
     10825 MEMB     88       PMPE     H16R     HAL3     0.900000E-01   1.00800           0   0.00000     -0.301140E-02
     10826 MEMB     88       PMPE     H16S     HAL3     0.900000E-01   1.00800           0   0.00000     -0.301140E-02
     10827 MEMB     88       PMPE     H16T     HAL3     0.900000E-01   1.00800           0   0.00000     -0.301140E-02
     10828 MEMB     88       PMPE     C33      CTL2    -0.180000       12.0110           0   0.00000     -0.301140E-02
     10829 MEMB     88       PMPE     H3X      HAL2     0.900000E-01   1.00800           0   0.00000     -0.301140E-02
     10830 MEMB     88       PMPE     H3Y      HAL2     0.900000E-01   1.00800           0   0.00000     -0.301140E-02
     10831 MEMB     88       PMPE     C34      CTL2    -0.180000       12.0110           0   0.00000     -0.301140E-02
     10832 MEMB     88       PMPE     H4X      HAL2     0.900000E-01   1.00800           0   0.00000     -0.301140E-02
     10833 MEMB     88       PMPE     H4Y      HAL2     0.900000E-01   1.00800           0   0.00000     -0.301140E-02
     10834 MEMB     88       PMPE     C35      CTL2    -0.180000       12.0110           0   0.00000     -0.301140E-02
     10835 MEMB     88       PMPE     H5X      HAL2     0.900000E-01   1.00800           0   0.00000     -0.301140E-02
     10836 MEMB     88       PMPE     H5Y      HAL2     0.900000E-01   1.00800           0   0.00000     -0.301140E-02
     10837 MEMB     88       PMPE     C36      CTL2    -0.180000       12.0110           0   0.00000     -0.301140E-02
     10838 MEMB     88       PMPE     H6X      HAL2     0.900000E-01   1.00800           0   0.00000     -0.301140E-02
     10839 MEMB     88       PMPE     H6Y      HAL2     0.900000E-01   1.00800           0   0.00000     -0.301140E-02
     10840 MEMB     88       PMPE     C37      CTL2    -0.180000       12.0110           0   0.00000     -0.301140E-02
     10841 MEMB     88       PMPE     H7X      HAL2     0.900000E-01   1.00800           0   0.00000     -0.301140E-02
     10842 MEMB     88       PMPE     H7Y      HAL2     0.900000E-01   1.00800           0   0.00000     -0.301140E-02
     10843 MEMB     88       PMPE     C38      CTL2    -0.180000       12.0110           0   0.00000     -0.301140E-02
     10844 MEMB     88       PMPE     H8X      HAL2     0.900000E-01   1.00800           0   0.00000     -0.301140E-02
     10845 MEMB     88       PMPE     H8Y      HAL2     0.900000E-01   1.00800           0   0.00000     -0.301140E-02
     10846 MEMB     88       PMPE     C39      CTL2    -0.180000       12.0110           0   0.00000     -0.301140E-02
     10847 MEMB     88       PMPE     H9X      HAL2     0.900000E-01   1.00800           0   0.00000     -0.301140E-02
     10848 MEMB     88       PMPE     H9Y      HAL2     0.900000E-01   1.00800           0   0.00000     -0.301140E-02
     10849 MEMB     88       PMPE     C310     CTL2    -0.180000       12.0110           0   0.00000     -0.301140E-02
     10850 MEMB     88       PMPE     H10X     HAL2     0.900000E-01   1.00800           0   0.00000     -0.301140E-02
     10851 MEMB     88       PMPE     H10Y     HAL2     0.900000E-01   1.00800           0   0.00000     -0.301140E-02
     10852 MEMB     88       PMPE     C311     CTL2    -0.180000       12.0110           0   0.00000     -0.301140E-02
     10853 MEMB     88       PMPE     H11X     HAL2     0.900000E-01   1.00800           0   0.00000     -0.301140E-02
     10854 MEMB     88       PMPE     H11Y     HAL2     0.900000E-01   1.00800           0   0.00000     -0.301140E-02
     10855 MEMB     88       PMPE     C312     CTL2    -0.180000       12.0110           0   0.00000     -0.301140E-02
     10856 MEMB     88       PMPE     H12X     HAL2     0.900000E-01   1.00800           0   0.00000     -0.301140E-02
     10857 MEMB     88       PMPE     H12Y     HAL2     0.900000E-01   1.00800           0   0.00000     -0.301140E-02
     10858 MEMB     88       PMPE     C313     CTL2    -0.180000       12.0110           0   0.00000     -0.301140E-02
     10859 MEMB     88       PMPE     H13X     HAL2     0.900000E-01   1.00800           0   0.00000     -0.301140E-02
     10860 MEMB     88       PMPE     H13Y     HAL2     0.900000E-01   1.00800           0   0.00000     -0.301140E-02
     10861 MEMB     88       PMPE     C314     CTL2    -0.180000       12.0110           0   0.00000     -0.301140E-02
     10862 MEMB     88       PMPE     H14X     HAL2     0.900000E-01   1.00800           0   0.00000     -0.301140E-02
     10863 MEMB     88       PMPE     H14Y     HAL2     0.900000E-01   1.00800           0   0.00000     -0.301140E-02
     10864 MEMB     88       PMPE     C315     CTL2    -0.180000       12.0110           0   0.00000     -0.301140E-02
     10865 MEMB     88       PMPE     H15X     HAL2     0.900000E-01   1.00800           0   0.00000     -0.301140E-02
     10866 MEMB     88       PMPE     H15Y     HAL2     0.900000E-01   1.00800           0   0.00000     -0.301140E-02
     10867 MEMB     88       PMPE     C316     CTL3    -0.270000       12.0110           0   0.00000     -0.301140E-02
     10868 MEMB     88       PMPE     H16X     HAL3     0.900000E-01   1.00800           0   0.00000     -0.301140E-02
     10869 MEMB     88       PMPE     H16Y     HAL3     0.900000E-01   1.00800           0   0.00000     -0.301140E-02
     10870 MEMB     88       PMPE     H16Z     HAL3     0.900000E-01   1.00800           0   0.00000     -0.301140E-02
     10871 MEMB     89       PMPE     N        NH3L    -0.300000       14.0070           0   0.00000     -0.301140E-02
     10872 MEMB     89       PMPE     HN1      HCL      0.330000       1.00800           0   0.00000     -0.301140E-02
     10873 MEMB     89       PMPE     HN2      HCL      0.330000       1.00800           0   0.00000     -0.301140E-02
     10874 MEMB     89       PMPE     HN3      HCL      0.330000       1.00800           0   0.00000     -0.301140E-02
     10875 MEMB     89       PMPE     C12      CTL2     0.130000       12.0110           0   0.00000     -0.301140E-02
     10876 MEMB     89       PMPE     H12A     HAL2     0.900000E-01   1.00800           0   0.00000     -0.301140E-02
     10877 MEMB     89       PMPE     H12B     HAL2     0.900000E-01   1.00800           0   0.00000     -0.301140E-02
     10878 MEMB     89       PMPE     C11      CTL2    -0.800000E-01   12.0110           0   0.00000     -0.301140E-02
     10879 MEMB     89       PMPE     H11A     HAL2     0.900000E-01   1.00800           0   0.00000     -0.301140E-02
     10880 MEMB     89       PMPE     H11B     HAL2     0.900000E-01   1.00800           0   0.00000     -0.301140E-02
     10881 MEMB     89       PMPE     P        PL        1.50000       30.9740           0   0.00000     -0.301140E-02
     10882 MEMB     89       PMPE     O13      O2L     -0.780000       15.9994           0   0.00000     -0.301140E-02
     10883 MEMB     89       PMPE     O14      O2L     -0.780000       15.9994           0   0.00000     -0.301140E-02
     10884 MEMB     89       PMPE     O11      OSLP    -0.570000       15.9994           0   0.00000     -0.301140E-02
     10885 MEMB     89       PMPE     O12      OSLP    -0.570000       15.9994           0   0.00000     -0.301140E-02
     10886 MEMB     89       PMPE     C1       CTL2    -0.800000E-01   12.0110           0   0.00000     -0.301140E-02
     10887 MEMB     89       PMPE     HA       HAL2     0.900000E-01   1.00800           0   0.00000     -0.301140E-02
     10888 MEMB     89       PMPE     HB       HAL2     0.900000E-01   1.00800           0   0.00000     -0.301140E-02
     10889 MEMB     89       PMPE     C2       CTL1     0.170000       12.0110           0   0.00000     -0.301140E-02
     10890 MEMB     89       PMPE     HS       HAL1     0.900000E-01   1.00800           0   0.00000     -0.301140E-02
     10891 MEMB     89       PMPE     O21      OSL     -0.490000       15.9994           0   0.00000     -0.301140E-02
     10892 MEMB     89       PMPE     C21      CL       0.900000       12.0110           0   0.00000     -0.301140E-02
     10893 MEMB     89       PMPE     O22      OBL     -0.630000       15.9994           0   0.00000     -0.301140E-02
     10894 MEMB     89       PMPE     C22      CTL2    -0.220000       12.0110           0   0.00000     -0.301140E-02
     10895 MEMB     89       PMPE     H2R      HAL2     0.900000E-01   1.00800           0   0.00000     -0.301140E-02
     10896 MEMB     89       PMPE     H2S      HAL2     0.900000E-01   1.00800           0   0.00000     -0.301140E-02
     10897 MEMB     89       PMPE     C3       CTL2     0.800000E-01   12.0110           0   0.00000     -0.301140E-02
     10898 MEMB     89       PMPE     HX       HAL2     0.900000E-01   1.00800           0   0.00000     -0.301140E-02
     10899 MEMB     89       PMPE     HY       HAL2     0.900000E-01   1.00800           0   0.00000     -0.301140E-02
     10900 MEMB     89       PMPE     O31      OSL     -0.490000       15.9994           0   0.00000     -0.301140E-02
     10901 MEMB     89       PMPE     C31      CL       0.900000       12.0110           0   0.00000     -0.301140E-02
     10902 MEMB     89       PMPE     O32      OBL     -0.630000       15.9994           0   0.00000     -0.301140E-02
     10903 MEMB     89       PMPE     C32      CTL2    -0.220000       12.0110           0   0.00000     -0.301140E-02
     10904 MEMB     89       PMPE     H2X      HAL2     0.900000E-01   1.00800           0   0.00000     -0.301140E-02
     10905 MEMB     89       PMPE     H2Y      HAL2     0.900000E-01   1.00800           0   0.00000     -0.301140E-02
     10906 MEMB     89       PMPE     C23      CTL2    -0.180000       12.0110           0   0.00000     -0.301140E-02
     10907 MEMB     89       PMPE     H3R      HAL2     0.900000E-01   1.00800           0   0.00000     -0.301140E-02
     10908 MEMB     89       PMPE     H3S      HAL2     0.900000E-01   1.00800           0   0.00000     -0.301140E-02
     10909 MEMB     89       PMPE     C24      CTL2    -0.180000       12.0110           0   0.00000     -0.301140E-02
     10910 MEMB     89       PMPE     H4R      HAL2     0.900000E-01   1.00800           0   0.00000     -0.301140E-02
     10911 MEMB     89       PMPE     H4S      HAL2     0.900000E-01   1.00800           0   0.00000     -0.301140E-02
     10912 MEMB     89       PMPE     C25      CTL2    -0.180000       12.0110           0   0.00000     -0.301140E-02
     10913 MEMB     89       PMPE     H5R      HAL2     0.900000E-01   1.00800           0   0.00000     -0.301140E-02
     10914 MEMB     89       PMPE     H5S      HAL2     0.900000E-01   1.00800           0   0.00000     -0.301140E-02
     10915 MEMB     89       PMPE     C26      CTL2    -0.180000       12.0110           0   0.00000     -0.301140E-02
     10916 MEMB     89       PMPE     H6R      HAL2     0.900000E-01   1.00800           0   0.00000     -0.301140E-02
     10917 MEMB     89       PMPE     H6S      HAL2     0.900000E-01   1.00800           0   0.00000     -0.301140E-02
     10918 MEMB     89       PMPE     C27      CTL2    -0.180000       12.0110           0   0.00000     -0.301140E-02
     10919 MEMB     89       PMPE     H7R      HAL2     0.900000E-01   1.00800           0   0.00000     -0.301140E-02
     10920 MEMB     89       PMPE     H7S      HAL2     0.900000E-01   1.00800           0   0.00000     -0.301140E-02
     10921 MEMB     89       PMPE     C28      CTL2    -0.180000       12.0110           0   0.00000     -0.301140E-02
     10922 MEMB     89       PMPE     H8R      HAL2     0.900000E-01   1.00800           0   0.00000     -0.301140E-02
     10923 MEMB     89       PMPE     H8S      HAL2     0.900000E-01   1.00800           0   0.00000     -0.301140E-02
     10924 MEMB     89       PMPE     C29      CG3RC1  -0.900000E-01   12.0110           0   0.00000     -0.301140E-02
     10925 MEMB     89       PMPE     H9R      HGA1     0.900000E-01   1.00800           0   0.00000     -0.301140E-02
     10926 MEMB     89       PMPE     C217     CG3C31  -0.180000       12.0110           0   0.00000     -0.301140E-02
     10927 MEMB     89       PMPE     H17R     HGA2     0.900000E-01   1.00800           0   0.00000     -0.301140E-02
     10928 MEMB     89       PMPE     H17S     HGA2     0.900000E-01   1.00800           0   0.00000     -0.301140E-02
     10929 MEMB     89       PMPE     C210     CG3RC1  -0.900000E-01   12.0110           0   0.00000     -0.301140E-02
     10930 MEMB     89       PMPE     H10R     HGA1     0.900000E-01   1.00800           0   0.00000     -0.301140E-02
     10931 MEMB     89       PMPE     C211     CTL2    -0.180000       12.0110           0   0.00000     -0.301140E-02
     10932 MEMB     89       PMPE     H11R     HAL2     0.900000E-01   1.00800           0   0.00000     -0.301140E-02
     10933 MEMB     89       PMPE     H11S     HAL2     0.900000E-01   1.00800           0   0.00000     -0.301140E-02
     10934 MEMB     89       PMPE     C212     CTL2    -0.180000       12.0110           0   0.00000     -0.301140E-02
     10935 MEMB     89       PMPE     H12R     HAL2     0.900000E-01   1.00800           0   0.00000     -0.301140E-02
     10936 MEMB     89       PMPE     H12S     HAL2     0.900000E-01   1.00800           0   0.00000     -0.301140E-02
     10937 MEMB     89       PMPE     C213     CTL2    -0.180000       12.0110           0   0.00000     -0.301140E-02
     10938 MEMB     89       PMPE     H13R     HAL2     0.900000E-01   1.00800           0   0.00000     -0.301140E-02
     10939 MEMB     89       PMPE     H13S     HAL2     0.900000E-01   1.00800           0   0.00000     -0.301140E-02
     10940 MEMB     89       PMPE     C214     CTL2    -0.180000       12.0110           0   0.00000     -0.301140E-02
     10941 MEMB     89       PMPE     H14R     HAL2     0.900000E-01   1.00800           0   0.00000     -0.301140E-02
     10942 MEMB     89       PMPE     H14S     HAL2     0.900000E-01   1.00800           0   0.00000     -0.301140E-02
     10943 MEMB     89       PMPE     C215     CTL2    -0.180000       12.0110           0   0.00000     -0.301140E-02
     10944 MEMB     89       PMPE     H15R     HAL2     0.900000E-01   1.00800           0   0.00000     -0.301140E-02
     10945 MEMB     89       PMPE     H15S     HAL2     0.900000E-01   1.00800           0   0.00000     -0.301140E-02
     10946 MEMB     89       PMPE     C216     CTL3    -0.270000       12.0110           0   0.00000     -0.301140E-02
     10947 MEMB     89       PMPE     H16R     HAL3     0.900000E-01   1.00800           0   0.00000     -0.301140E-02
     10948 MEMB     89       PMPE     H16S     HAL3     0.900000E-01   1.00800           0   0.00000     -0.301140E-02
     10949 MEMB     89       PMPE     H16T     HAL3     0.900000E-01   1.00800           0   0.00000     -0.301140E-02
     10950 MEMB     89       PMPE     C33      CTL2    -0.180000       12.0110           0   0.00000     -0.301140E-02
     10951 MEMB     89       PMPE     H3X      HAL2     0.900000E-01   1.00800           0   0.00000     -0.301140E-02
     10952 MEMB     89       PMPE     H3Y      HAL2     0.900000E-01   1.00800           0   0.00000     -0.301140E-02
     10953 MEMB     89       PMPE     C34      CTL2    -0.180000       12.0110           0   0.00000     -0.301140E-02
     10954 MEMB     89       PMPE     H4X      HAL2     0.900000E-01   1.00800           0   0.00000     -0.301140E-02
     10955 MEMB     89       PMPE     H4Y      HAL2     0.900000E-01   1.00800           0   0.00000     -0.301140E-02
     10956 MEMB     89       PMPE     C35      CTL2    -0.180000       12.0110           0   0.00000     -0.301140E-02
     10957 MEMB     89       PMPE     H5X      HAL2     0.900000E-01   1.00800           0   0.00000     -0.301140E-02
     10958 MEMB     89       PMPE     H5Y      HAL2     0.900000E-01   1.00800           0   0.00000     -0.301140E-02
     10959 MEMB     89       PMPE     C36      CTL2    -0.180000       12.0110           0   0.00000     -0.301140E-02
     10960 MEMB     89       PMPE     H6X      HAL2     0.900000E-01   1.00800           0   0.00000     -0.301140E-02
     10961 MEMB     89       PMPE     H6Y      HAL2     0.900000E-01   1.00800           0   0.00000     -0.301140E-02
     10962 MEMB     89       PMPE     C37      CTL2    -0.180000       12.0110           0   0.00000     -0.301140E-02
     10963 MEMB     89       PMPE     H7X      HAL2     0.900000E-01   1.00800           0   0.00000     -0.301140E-02
     10964 MEMB     89       PMPE     H7Y      HAL2     0.900000E-01   1.00800           0   0.00000     -0.301140E-02
     10965 MEMB     89       PMPE     C38      CTL2    -0.180000       12.0110           0   0.00000     -0.301140E-02
     10966 MEMB     89       PMPE     H8X      HAL2     0.900000E-01   1.00800           0   0.00000     -0.301140E-02
     10967 MEMB     89       PMPE     H8Y      HAL2     0.900000E-01   1.00800           0   0.00000     -0.301140E-02
     10968 MEMB     89       PMPE     C39      CTL2    -0.180000       12.0110           0   0.00000     -0.301140E-02
     10969 MEMB     89       PMPE     H9X      HAL2     0.900000E-01   1.00800           0   0.00000     -0.301140E-02
     10970 MEMB     89       PMPE     H9Y      HAL2     0.900000E-01   1.00800           0   0.00000     -0.301140E-02
     10971 MEMB     89       PMPE     C310     CTL2    -0.180000       12.0110           0   0.00000     -0.301140E-02
     10972 MEMB     89       PMPE     H10X     HAL2     0.900000E-01   1.00800           0   0.00000     -0.301140E-02
     10973 MEMB     89       PMPE     H10Y     HAL2     0.900000E-01   1.00800           0   0.00000     -0.301140E-02
     10974 MEMB     89       PMPE     C311     CTL2    -0.180000       12.0110           0   0.00000     -0.301140E-02
     10975 MEMB     89       PMPE     H11X     HAL2     0.900000E-01   1.00800           0   0.00000     -0.301140E-02
     10976 MEMB     89       PMPE     H11Y     HAL2     0.900000E-01   1.00800           0   0.00000     -0.301140E-02
     10977 MEMB     89       PMPE     C312     CTL2    -0.180000       12.0110           0   0.00000     -0.301140E-02
     10978 MEMB     89       PMPE     H12X     HAL2     0.900000E-01   1.00800           0   0.00000     -0.301140E-02
     10979 MEMB     89       PMPE     H12Y     HAL2     0.900000E-01   1.00800           0   0.00000     -0.301140E-02
     10980 MEMB     89       PMPE     C313     CTL2    -0.180000       12.0110           0   0.00000     -0.301140E-02
     10981 MEMB     89       PMPE     H13X     HAL2     0.900000E-01   1.00800           0   0.00000     -0.301140E-02
     10982 MEMB     89       PMPE     H13Y     HAL2     0.900000E-01   1.00800           0   0.00000     -0.301140E-02
     10983 MEMB     89       PMPE     C314     CTL2    -0.180000       12.0110           0   0.00000     -0.301140E-02
     10984 MEMB     89       PMPE     H14X     HAL2     0.900000E-01   1.00800           0   0.00000     -0.301140E-02
     10985 MEMB     89       PMPE     H14Y     HAL2     0.900000E-01   1.00800           0   0.00000     -0.301140E-02
     10986 MEMB     89       PMPE     C315     CTL2    -0.180000       12.0110           0   0.00000     -0.301140E-02
     10987 MEMB     89       PMPE     H15X     HAL2     0.900000E-01   1.00800           0   0.00000     -0.301140E-02
     10988 MEMB     89       PMPE     H15Y     HAL2     0.900000E-01   1.00800           0   0.00000     -0.301140E-02
     10989 MEMB     89       PMPE     C316     CTL3    -0.270000       12.0110           0   0.00000     -0.301140E-02
     10990 MEMB     89       PMPE     H16X     HAL3     0.900000E-01   1.00800           0   0.00000     -0.301140E-02
     10991 MEMB     89       PMPE     H16Y     HAL3     0.900000E-01   1.00800           0   0.00000     -0.301140E-02
     10992 MEMB     89       PMPE     H16Z     HAL3     0.900000E-01   1.00800           0   0.00000     -0.301140E-02
     10993 MEMB     90       PVCL2    C3       CTL2    -0.800000E-01   12.0110           0   0.00000     -0.301140E-02
     10994 MEMB     90       PVCL2    HG31     HAL2     0.900000E-01   1.00800           0   0.00000     -0.301140E-02
     10995 MEMB     90       PVCL2    HG32     HAL2     0.900000E-01   1.00800           0   0.00000     -0.301140E-02
     10996 MEMB     90       PVCL2    P3       PL        1.50000       30.9740           0   0.00000     -0.301140E-02
     10997 MEMB     90       PVCL2    OP33     O2L     -0.780000       15.9994           0   0.00000     -0.301140E-02
     10998 MEMB     90       PVCL2    OP34     O2L     -0.780000       15.9994           0   0.00000     -0.301140E-02
     10999 MEMB     90       PVCL2    OP31     OSLP    -0.570000       15.9994           0   0.00000     -0.301140E-02
     11000 MEMB     90       PVCL2    OP32     OSLP    -0.570000       15.9994           0   0.00000     -0.301140E-02
     11001 MEMB     90       PVCL2    C31      CTL2    -0.800000E-01   12.0110           0   0.00000     -0.301140E-02
     11002 MEMB     90       PVCL2    H31J     HAL2     0.900000E-01   1.00800           0   0.00000     -0.301140E-02
     11003 MEMB     90       PVCL2    H31K     HAL2     0.900000E-01   1.00800           0   0.00000     -0.301140E-02
     11004 MEMB     90       PVCL2    C2       CTL1     0.140000       12.0110           0   0.00000     -0.301140E-02
     11005 MEMB     90       PVCL2    HG22     HAL1     0.900000E-01   1.00800           0   0.00000     -0.301140E-02
     11006 MEMB     90       PVCL2    OG12     OHL     -0.650000       15.9994           0   0.00000     -0.301140E-02
     11007 MEMB     90       PVCL2    HO12     HOL      0.420000       1.00800           0   0.00000     -0.301140E-02
     11008 MEMB     90       PVCL2    C1       CTL2    -0.800000E-01   12.0110           0   0.00000     -0.301140E-02
     11009 MEMB     90       PVCL2    HG11     HAL2     0.900000E-01   1.00800           0   0.00000     -0.301140E-02
     11010 MEMB     90       PVCL2    HG12     HAL2     0.900000E-01   1.00800           0   0.00000     -0.301140E-02
     11011 MEMB     90       PVCL2    P1       PL        1.50000       30.9740           0   0.00000     -0.301140E-02
     11012 MEMB     90       PVCL2    OP13     O2L     -0.780000       15.9994           0   0.00000     -0.301140E-02
     11013 MEMB     90       PVCL2    OP14     O2L     -0.780000       15.9994           0   0.00000     -0.301140E-02
     11014 MEMB     90       PVCL2    OP11     OSLP    -0.570000       15.9994           0   0.00000     -0.301140E-02
     11015 MEMB     90       PVCL2    OP12     OSLP    -0.570000       15.9994           0   0.00000     -0.301140E-02
     11016 MEMB     90       PVCL2    C11      CTL2    -0.800000E-01   12.0110           0   0.00000     -0.301140E-02
     11017 MEMB     90       PVCL2    H11J     HAL2     0.900000E-01   1.00800           0   0.00000     -0.301140E-02
     11018 MEMB     90       PVCL2    H11K     HAL2     0.900000E-01   1.00800           0   0.00000     -0.301140E-02
     11019 MEMB     90       PVCL2    C12      CTL1     0.170000       12.0110           0   0.00000     -0.301140E-02
     11020 MEMB     90       PVCL2    H12J     HAL1     0.900000E-01   1.00800           0   0.00000     -0.301140E-02
     11021 MEMB     90       PVCL2    O12      OSL     -0.490000       15.9994           0   0.00000     -0.301140E-02
     11022 MEMB     90       PVCL2    CA1      CL       0.900000       12.0110           0   0.00000     -0.301140E-02
     11023 MEMB     90       PVCL2    OA1      OBL     -0.630000       15.9994           0   0.00000     -0.301140E-02
     11024 MEMB     90       PVCL2    CA2      CTL2    -0.220000       12.0110           0   0.00000     -0.301140E-02
     11025 MEMB     90       PVCL2    H2A      HAL2     0.900000E-01   1.00800           0   0.00000     -0.301140E-02
     11026 MEMB     90       PVCL2    H2B      HAL2     0.900000E-01   1.00800           0   0.00000     -0.301140E-02
     11027 MEMB     90       PVCL2    C13      CTL2     0.800000E-01   12.0110           0   0.00000     -0.301140E-02
     11028 MEMB     90       PVCL2    H13J     HAL2     0.900000E-01   1.00800           0   0.00000     -0.301140E-02
     11029 MEMB     90       PVCL2    H13K     HAL2     0.900000E-01   1.00800           0   0.00000     -0.301140E-02
     11030 MEMB     90       PVCL2    O13      OSL     -0.490000       15.9994           0   0.00000     -0.301140E-02
     11031 MEMB     90       PVCL2    CB1      CL       0.900000       12.0110           0   0.00000     -0.301140E-02
     11032 MEMB     90       PVCL2    OB1      OBL     -0.630000       15.9994           0   0.00000     -0.301140E-02
     11033 MEMB     90       PVCL2    CB2      CTL2    -0.220000       12.0110           0   0.00000     -0.301140E-02
     11034 MEMB     90       PVCL2    H2D      HAL2     0.900000E-01   1.00800           0   0.00000     -0.301140E-02
     11035 MEMB     90       PVCL2    H2E      HAL2     0.900000E-01   1.00800           0   0.00000     -0.301140E-02
     11036 MEMB     90       PVCL2    C32      CTL1     0.170000       12.0110           0   0.00000     -0.301140E-02
     11037 MEMB     90       PVCL2    H32J     HAL1     0.900000E-01   1.00800           0   0.00000     -0.301140E-02
     11038 MEMB     90       PVCL2    O32      OSL     -0.490000       15.9994           0   0.00000     -0.301140E-02
     11039 MEMB     90       PVCL2    CC1      CL       0.900000       12.0110           0   0.00000     -0.301140E-02
     11040 MEMB     90       PVCL2    OC1      OBL     -0.630000       15.9994           0   0.00000     -0.301140E-02
     11041 MEMB     90       PVCL2    CC2      CTL2    -0.220000       12.0110           0   0.00000     -0.301140E-02
     11042 MEMB     90       PVCL2    H2R      HAL2     0.900000E-01   1.00800           0   0.00000     -0.301140E-02
     11043 MEMB     90       PVCL2    H2S      HAL2     0.900000E-01   1.00800           0   0.00000     -0.301140E-02
     11044 MEMB     90       PVCL2    C33      CTL2     0.800000E-01   12.0110           0   0.00000     -0.301140E-02
     11045 MEMB     90       PVCL2    H33J     HAL2     0.900000E-01   1.00800           0   0.00000     -0.301140E-02
     11046 MEMB     90       PVCL2    H33K     HAL2     0.900000E-01   1.00800           0   0.00000     -0.301140E-02
     11047 MEMB     90       PVCL2    O33      OSL     -0.490000       15.9994           0   0.00000     -0.301140E-02
     11048 MEMB     90       PVCL2    CD1      CL       0.900000       12.0110           0   0.00000     -0.301140E-02
     11049 MEMB     90       PVCL2    OD1      OBL     -0.630000       15.9994           0   0.00000     -0.301140E-02
     11050 MEMB     90       PVCL2    CD2      CTL2    -0.220000       12.0110           0   0.00000     -0.301140E-02
     11051 MEMB     90       PVCL2    H2X      HAL2     0.900000E-01   1.00800           0   0.00000     -0.301140E-02
     11052 MEMB     90       PVCL2    H2Y      HAL2     0.900000E-01   1.00800           0   0.00000     -0.301140E-02
     11053 MEMB     90       PVCL2    CA3      CTL2    -0.180000       12.0110           0   0.00000     -0.301140E-02
     11054 MEMB     90       PVCL2    H3A      HAL2     0.900000E-01   1.00800           0   0.00000     -0.301140E-02
     11055 MEMB     90       PVCL2    H3B      HAL2     0.900000E-01   1.00800           0   0.00000     -0.301140E-02
     11056 MEMB     90       PVCL2    CA4      CTL2    -0.180000       12.0110           0   0.00000     -0.301140E-02
     11057 MEMB     90       PVCL2    H4A      HAL2     0.900000E-01   1.00800           0   0.00000     -0.301140E-02
     11058 MEMB     90       PVCL2    H4B      HAL2     0.900000E-01   1.00800           0   0.00000     -0.301140E-02
     11059 MEMB     90       PVCL2    CA5      CTL2    -0.180000       12.0110           0   0.00000     -0.301140E-02
     11060 MEMB     90       PVCL2    H5A      HAL2     0.900000E-01   1.00800           0   0.00000     -0.301140E-02
     11061 MEMB     90       PVCL2    H5B      HAL2     0.900000E-01   1.00800           0   0.00000     -0.301140E-02
     11062 MEMB     90       PVCL2    CA6      CTL2    -0.180000       12.0110           0   0.00000     -0.301140E-02
     11063 MEMB     90       PVCL2    H6A      HAL2     0.900000E-01   1.00800           0   0.00000     -0.301140E-02
     11064 MEMB     90       PVCL2    H6B      HAL2     0.900000E-01   1.00800           0   0.00000     -0.301140E-02
     11065 MEMB     90       PVCL2    CA7      CTL2    -0.180000       12.0110           0   0.00000     -0.301140E-02
     11066 MEMB     90       PVCL2    H7A      HAL2     0.900000E-01   1.00800           0   0.00000     -0.301140E-02
     11067 MEMB     90       PVCL2    H7B      HAL2     0.900000E-01   1.00800           0   0.00000     -0.301140E-02
     11068 MEMB     90       PVCL2    CA8      CTL2    -0.180000       12.0110           0   0.00000     -0.301140E-02
     11069 MEMB     90       PVCL2    H8A      HAL2     0.900000E-01   1.00800           0   0.00000     -0.301140E-02
     11070 MEMB     90       PVCL2    H8B      HAL2     0.900000E-01   1.00800           0   0.00000     -0.301140E-02
     11071 MEMB     90       PVCL2    CA9      CTL2    -0.180000       12.0110           0   0.00000     -0.301140E-02
     11072 MEMB     90       PVCL2    H9A      HAL2     0.900000E-01   1.00800           0   0.00000     -0.301140E-02
     11073 MEMB     90       PVCL2    H9B      HAL2     0.900000E-01   1.00800           0   0.00000     -0.301140E-02
     11074 MEMB     90       PVCL2    CA10     CTL2    -0.180000       12.0110           0   0.00000     -0.301140E-02
     11075 MEMB     90       PVCL2    H10A     HAL2     0.900000E-01   1.00800           0   0.00000     -0.301140E-02
     11076 MEMB     90       PVCL2    H10B     HAL2     0.900000E-01   1.00800           0   0.00000     -0.301140E-02
     11077 MEMB     90       PVCL2    CA11     CEL1    -0.150000       12.0110           0   0.00000     -0.301140E-02
     11078 MEMB     90       PVCL2    H11A     HEL1     0.150000       1.00800           0   0.00000     -0.301140E-02
     11079 MEMB     90       PVCL2    CA12     CEL1    -0.150000       12.0110           0   0.00000     -0.301140E-02
     11080 MEMB     90       PVCL2    H12A     HEL1     0.150000       1.00800           0   0.00000     -0.301140E-02
     11081 MEMB     90       PVCL2    CA13     CTL2    -0.180000       12.0110           0   0.00000     -0.301140E-02
     11082 MEMB     90       PVCL2    H13A     HAL2     0.900000E-01   1.00800           0   0.00000     -0.301140E-02
     11083 MEMB     90       PVCL2    H13B     HAL2     0.900000E-01   1.00800           0   0.00000     -0.301140E-02
     11084 MEMB     90       PVCL2    CA14     CTL2    -0.180000       12.0110           0   0.00000     -0.301140E-02
     11085 MEMB     90       PVCL2    H14A     HAL2     0.900000E-01   1.00800           0   0.00000     -0.301140E-02
     11086 MEMB     90       PVCL2    H14B     HAL2     0.900000E-01   1.00800           0   0.00000     -0.301140E-02
     11087 MEMB     90       PVCL2    CA15     CTL2    -0.180000       12.0110           0   0.00000     -0.301140E-02
     11088 MEMB     90       PVCL2    H15A     HAL2     0.900000E-01   1.00800           0   0.00000     -0.301140E-02
     11089 MEMB     90       PVCL2    H15B     HAL2     0.900000E-01   1.00800           0   0.00000     -0.301140E-02
     11090 MEMB     90       PVCL2    CA16     CTL2    -0.180000       12.0110           0   0.00000     -0.301140E-02
     11091 MEMB     90       PVCL2    H16A     HAL2     0.900000E-01   1.00800           0   0.00000     -0.301140E-02
     11092 MEMB     90       PVCL2    H16B     HAL2     0.900000E-01   1.00800           0   0.00000     -0.301140E-02
     11093 MEMB     90       PVCL2    CA17     CTL2    -0.180000       12.0110           0   0.00000     -0.301140E-02
     11094 MEMB     90       PVCL2    H17A     HAL2     0.900000E-01   1.00800           0   0.00000     -0.301140E-02
     11095 MEMB     90       PVCL2    H17B     HAL2     0.900000E-01   1.00800           0   0.00000     -0.301140E-02
     11096 MEMB     90       PVCL2    CA18     CTL3    -0.270000       12.0110           0   0.00000     -0.301140E-02
     11097 MEMB     90       PVCL2    H18A     HAL3     0.900000E-01   1.00800           0   0.00000     -0.301140E-02
     11098 MEMB     90       PVCL2    H18B     HAL3     0.900000E-01   1.00800           0   0.00000     -0.301140E-02
     11099 MEMB     90       PVCL2    H18C     HAL3     0.900000E-01   1.00800           0   0.00000     -0.301140E-02
     11100 MEMB     90       PVCL2    CB3      CTL2    -0.180000       12.0110           0   0.00000     -0.301140E-02
     11101 MEMB     90       PVCL2    H3D      HAL2     0.900000E-01   1.00800           0   0.00000     -0.301140E-02
     11102 MEMB     90       PVCL2    H3E      HAL2     0.900000E-01   1.00800           0   0.00000     -0.301140E-02
     11103 MEMB     90       PVCL2    CB4      CTL2    -0.180000       12.0110           0   0.00000     -0.301140E-02
     11104 MEMB     90       PVCL2    H4D      HAL2     0.900000E-01   1.00800           0   0.00000     -0.301140E-02
     11105 MEMB     90       PVCL2    H4E      HAL2     0.900000E-01   1.00800           0   0.00000     -0.301140E-02
     11106 MEMB     90       PVCL2    CB5      CTL2    -0.180000       12.0110           0   0.00000     -0.301140E-02
     11107 MEMB     90       PVCL2    H5D      HAL2     0.900000E-01   1.00800           0   0.00000     -0.301140E-02
     11108 MEMB     90       PVCL2    H5E      HAL2     0.900000E-01   1.00800           0   0.00000     -0.301140E-02
     11109 MEMB     90       PVCL2    CB6      CTL2    -0.180000       12.0110           0   0.00000     -0.301140E-02
     11110 MEMB     90       PVCL2    H6D      HAL2     0.900000E-01   1.00800           0   0.00000     -0.301140E-02
     11111 MEMB     90       PVCL2    H6E      HAL2     0.900000E-01   1.00800           0   0.00000     -0.301140E-02
     11112 MEMB     90       PVCL2    CB7      CTL2    -0.180000       12.0110           0   0.00000     -0.301140E-02
     11113 MEMB     90       PVCL2    H7D      HAL2     0.900000E-01   1.00800           0   0.00000     -0.301140E-02
     11114 MEMB     90       PVCL2    H7E      HAL2     0.900000E-01   1.00800           0   0.00000     -0.301140E-02
     11115 MEMB     90       PVCL2    CB8      CTL2    -0.180000       12.0110           0   0.00000     -0.301140E-02
     11116 MEMB     90       PVCL2    H8D      HAL2     0.900000E-01   1.00800           0   0.00000     -0.301140E-02
     11117 MEMB     90       PVCL2    H8E      HAL2     0.900000E-01   1.00800           0   0.00000     -0.301140E-02
     11118 MEMB     90       PVCL2    CB9      CTL2    -0.180000       12.0110           0   0.00000     -0.301140E-02
     11119 MEMB     90       PVCL2    H9D      HAL2     0.900000E-01   1.00800           0   0.00000     -0.301140E-02
     11120 MEMB     90       PVCL2    H9E      HAL2     0.900000E-01   1.00800           0   0.00000     -0.301140E-02
     11121 MEMB     90       PVCL2    CB10     CTL2    -0.180000       12.0110           0   0.00000     -0.301140E-02
     11122 MEMB     90       PVCL2    H10D     HAL2     0.900000E-01   1.00800           0   0.00000     -0.301140E-02
     11123 MEMB     90       PVCL2    H10E     HAL2     0.900000E-01   1.00800           0   0.00000     -0.301140E-02
     11124 MEMB     90       PVCL2    CB11     CTL2    -0.180000       12.0110           0   0.00000     -0.301140E-02
     11125 MEMB     90       PVCL2    H11D     HAL2     0.900000E-01   1.00800           0   0.00000     -0.301140E-02
     11126 MEMB     90       PVCL2    H11E     HAL2     0.900000E-01   1.00800           0   0.00000     -0.301140E-02
     11127 MEMB     90       PVCL2    CB12     CTL2    -0.180000       12.0110           0   0.00000     -0.301140E-02
     11128 MEMB     90       PVCL2    H12D     HAL2     0.900000E-01   1.00800           0   0.00000     -0.301140E-02
     11129 MEMB     90       PVCL2    H12E     HAL2     0.900000E-01   1.00800           0   0.00000     -0.301140E-02
     11130 MEMB     90       PVCL2    CB13     CTL2    -0.180000       12.0110           0   0.00000     -0.301140E-02
     11131 MEMB     90       PVCL2    H13D     HAL2     0.900000E-01   1.00800           0   0.00000     -0.301140E-02
     11132 MEMB     90       PVCL2    H13E     HAL2     0.900000E-01   1.00800           0   0.00000     -0.301140E-02
     11133 MEMB     90       PVCL2    CB14     CTL2    -0.180000       12.0110           0   0.00000     -0.301140E-02
     11134 MEMB     90       PVCL2    H14D     HAL2     0.900000E-01   1.00800           0   0.00000     -0.301140E-02
     11135 MEMB     90       PVCL2    H14E     HAL2     0.900000E-01   1.00800           0   0.00000     -0.301140E-02
     11136 MEMB     90       PVCL2    CB15     CTL2    -0.180000       12.0110           0   0.00000     -0.301140E-02
     11137 MEMB     90       PVCL2    H15D     HAL2     0.900000E-01   1.00800           0   0.00000     -0.301140E-02
     11138 MEMB     90       PVCL2    H15E     HAL2     0.900000E-01   1.00800           0   0.00000     -0.301140E-02
     11139 MEMB     90       PVCL2    CB16     CTL3    -0.270000       12.0110           0   0.00000     -0.301140E-02
     11140 MEMB     90       PVCL2    H16D     HAL3     0.900000E-01   1.00800           0   0.00000     -0.301140E-02
     11141 MEMB     90       PVCL2    H16E     HAL3     0.900000E-01   1.00800           0   0.00000     -0.301140E-02
     11142 MEMB     90       PVCL2    H16F     HAL3     0.900000E-01   1.00800           0   0.00000     -0.301140E-02
     11143 MEMB     90       PVCL2    CC3      CTL2    -0.180000       12.0110           0   0.00000     -0.301140E-02
     11144 MEMB     90       PVCL2    H3R      HAL2     0.900000E-01   1.00800           0   0.00000     -0.301140E-02
     11145 MEMB     90       PVCL2    H3S      HAL2     0.900000E-01   1.00800           0   0.00000     -0.301140E-02
     11146 MEMB     90       PVCL2    CC4      CTL2    -0.180000       12.0110           0   0.00000     -0.301140E-02
     11147 MEMB     90       PVCL2    H4R      HAL2     0.900000E-01   1.00800           0   0.00000     -0.301140E-02
     11148 MEMB     90       PVCL2    H4S      HAL2     0.900000E-01   1.00800           0   0.00000     -0.301140E-02
     11149 MEMB     90       PVCL2    CC5      CTL2    -0.180000       12.0110           0   0.00000     -0.301140E-02
     11150 MEMB     90       PVCL2    H5R      HAL2     0.900000E-01   1.00800           0   0.00000     -0.301140E-02
     11151 MEMB     90       PVCL2    H5S      HAL2     0.900000E-01   1.00800           0   0.00000     -0.301140E-02
     11152 MEMB     90       PVCL2    CC6      CTL2    -0.180000       12.0110           0   0.00000     -0.301140E-02
     11153 MEMB     90       PVCL2    H6R      HAL2     0.900000E-01   1.00800           0   0.00000     -0.301140E-02
     11154 MEMB     90       PVCL2    H6S      HAL2     0.900000E-01   1.00800           0   0.00000     -0.301140E-02
     11155 MEMB     90       PVCL2    CC7      CTL2    -0.180000       12.0110           0   0.00000     -0.301140E-02
     11156 MEMB     90       PVCL2    H7R      HAL2     0.900000E-01   1.00800           0   0.00000     -0.301140E-02
     11157 MEMB     90       PVCL2    H7S      HAL2     0.900000E-01   1.00800           0   0.00000     -0.301140E-02
     11158 MEMB     90       PVCL2    CC8      CTL2    -0.180000       12.0110           0   0.00000     -0.301140E-02
     11159 MEMB     90       PVCL2    H8R      HAL2     0.900000E-01   1.00800           0   0.00000     -0.301140E-02
     11160 MEMB     90       PVCL2    H8S      HAL2     0.900000E-01   1.00800           0   0.00000     -0.301140E-02
     11161 MEMB     90       PVCL2    CC9      CTL2    -0.180000       12.0110           0   0.00000     -0.301140E-02
     11162 MEMB     90       PVCL2    H9R      HAL2     0.900000E-01   1.00800           0   0.00000     -0.301140E-02
     11163 MEMB     90       PVCL2    H9S      HAL2     0.900000E-01   1.00800           0   0.00000     -0.301140E-02
     11164 MEMB     90       PVCL2    CC10     CTL2    -0.180000       12.0110           0   0.00000     -0.301140E-02
     11165 MEMB     90       PVCL2    H10R     HAL2     0.900000E-01   1.00800           0   0.00000     -0.301140E-02
     11166 MEMB     90       PVCL2    H10S     HAL2     0.900000E-01   1.00800           0   0.00000     -0.301140E-02
     11167 MEMB     90       PVCL2    CC11     CEL1    -0.150000       12.0110           0   0.00000     -0.301140E-02
     11168 MEMB     90       PVCL2    H11R     HEL1     0.150000       1.00800           0   0.00000     -0.301140E-02
     11169 MEMB     90       PVCL2    CC12     CEL1    -0.150000       12.0110           0   0.00000     -0.301140E-02
     11170 MEMB     90       PVCL2    H12R     HEL1     0.150000       1.00800           0   0.00000     -0.301140E-02
     11171 MEMB     90       PVCL2    CC13     CTL2    -0.180000       12.0110           0   0.00000     -0.301140E-02
     11172 MEMB     90       PVCL2    H13R     HAL2     0.900000E-01   1.00800           0   0.00000     -0.301140E-02
     11173 MEMB     90       PVCL2    H13S     HAL2     0.900000E-01   1.00800           0   0.00000     -0.301140E-02
     11174 MEMB     90       PVCL2    CC14     CTL2    -0.180000       12.0110           0   0.00000     -0.301140E-02
     11175 MEMB     90       PVCL2    H14R     HAL2     0.900000E-01   1.00800           0   0.00000     -0.301140E-02
     11176 MEMB     90       PVCL2    H14S     HAL2     0.900000E-01   1.00800           0   0.00000     -0.301140E-02
     11177 MEMB     90       PVCL2    CC15     CTL2    -0.180000       12.0110           0   0.00000     -0.301140E-02
     11178 MEMB     90       PVCL2    H15R     HAL2     0.900000E-01   1.00800           0   0.00000     -0.301140E-02
     11179 MEMB     90       PVCL2    H15S     HAL2     0.900000E-01   1.00800           0   0.00000     -0.301140E-02
     11180 MEMB     90       PVCL2    CC16     CTL2    -0.180000       12.0110           0   0.00000     -0.301140E-02
     11181 MEMB     90       PVCL2    H16R     HAL2     0.900000E-01   1.00800           0   0.00000     -0.301140E-02
     11182 MEMB     90       PVCL2    H16S     HAL2     0.900000E-01   1.00800           0   0.00000     -0.301140E-02
     11183 MEMB     90       PVCL2    CC17     CTL2    -0.180000       12.0110           0   0.00000     -0.301140E-02
     11184 MEMB     90       PVCL2    H17R     HAL2     0.900000E-01   1.00800           0   0.00000     -0.301140E-02
     11185 MEMB     90       PVCL2    H17S     HAL2     0.900000E-01   1.00800           0   0.00000     -0.301140E-02
     11186 MEMB     90       PVCL2    CC18     CTL3    -0.270000       12.0110           0   0.00000     -0.301140E-02
     11187 MEMB     90       PVCL2    H18R     HAL3     0.900000E-01   1.00800           0   0.00000     -0.301140E-02
     11188 MEMB     90       PVCL2    H18S     HAL3     0.900000E-01   1.00800           0   0.00000     -0.301140E-02
     11189 MEMB     90       PVCL2    H18T     HAL3     0.900000E-01   1.00800           0   0.00000     -0.301140E-02
     11190 MEMB     90       PVCL2    CD3      CTL2    -0.180000       12.0110           0   0.00000     -0.301140E-02
     11191 MEMB     90       PVCL2    H3X      HAL2     0.900000E-01   1.00800           0   0.00000     -0.301140E-02
     11192 MEMB     90       PVCL2    H3Y      HAL2     0.900000E-01   1.00800           0   0.00000     -0.301140E-02
     11193 MEMB     90       PVCL2    CD4      CTL2    -0.180000       12.0110           0   0.00000     -0.301140E-02
     11194 MEMB     90       PVCL2    H4X      HAL2     0.900000E-01   1.00800           0   0.00000     -0.301140E-02
     11195 MEMB     90       PVCL2    H4Y      HAL2     0.900000E-01   1.00800           0   0.00000     -0.301140E-02
     11196 MEMB     90       PVCL2    CD5      CTL2    -0.180000       12.0110           0   0.00000     -0.301140E-02
     11197 MEMB     90       PVCL2    H5X      HAL2     0.900000E-01   1.00800           0   0.00000     -0.301140E-02
     11198 MEMB     90       PVCL2    H5Y      HAL2     0.900000E-01   1.00800           0   0.00000     -0.301140E-02
     11199 MEMB     90       PVCL2    CD6      CTL2    -0.180000       12.0110           0   0.00000     -0.301140E-02
     11200 MEMB     90       PVCL2    H6X      HAL2     0.900000E-01   1.00800           0   0.00000     -0.301140E-02
     11201 MEMB     90       PVCL2    H6Y      HAL2     0.900000E-01   1.00800           0   0.00000     -0.301140E-02
     11202 MEMB     90       PVCL2    CD7      CTL2    -0.180000       12.0110           0   0.00000     -0.301140E-02
     11203 MEMB     90       PVCL2    H7X      HAL2     0.900000E-01   1.00800           0   0.00000     -0.301140E-02
     11204 MEMB     90       PVCL2    H7Y      HAL2     0.900000E-01   1.00800           0   0.00000     -0.301140E-02
     11205 MEMB     90       PVCL2    CD8      CTL2    -0.180000       12.0110           0   0.00000     -0.301140E-02
     11206 MEMB     90       PVCL2    H8X      HAL2     0.900000E-01   1.00800           0   0.00000     -0.301140E-02
     11207 MEMB     90       PVCL2    H8Y      HAL2     0.900000E-01   1.00800           0   0.00000     -0.301140E-02
     11208 MEMB     90       PVCL2    CD9      CTL2    -0.180000       12.0110           0   0.00000     -0.301140E-02
     11209 MEMB     90       PVCL2    H9X      HAL2     0.900000E-01   1.00800           0   0.00000     -0.301140E-02
     11210 MEMB     90       PVCL2    H9Y      HAL2     0.900000E-01   1.00800           0   0.00000     -0.301140E-02
     11211 MEMB     90       PVCL2    CD10     CTL2    -0.180000       12.0110           0   0.00000     -0.301140E-02
     11212 MEMB     90       PVCL2    H10X     HAL2     0.900000E-01   1.00800           0   0.00000     -0.301140E-02
     11213 MEMB     90       PVCL2    H10Y     HAL2     0.900000E-01   1.00800           0   0.00000     -0.301140E-02
     11214 MEMB     90       PVCL2    CD11     CTL2    -0.180000       12.0110           0   0.00000     -0.301140E-02
     11215 MEMB     90       PVCL2    H11X     HAL2     0.900000E-01   1.00800           0   0.00000     -0.301140E-02
     11216 MEMB     90       PVCL2    H11Y     HAL2     0.900000E-01   1.00800           0   0.00000     -0.301140E-02
     11217 MEMB     90       PVCL2    CD12     CTL2    -0.180000       12.0110           0   0.00000     -0.301140E-02
     11218 MEMB     90       PVCL2    H12X     HAL2     0.900000E-01   1.00800           0   0.00000     -0.301140E-02
     11219 MEMB     90       PVCL2    H12Y     HAL2     0.900000E-01   1.00800           0   0.00000     -0.301140E-02
     11220 MEMB     90       PVCL2    CD13     CTL2    -0.180000       12.0110           0   0.00000     -0.301140E-02
     11221 MEMB     90       PVCL2    H13X     HAL2     0.900000E-01   1.00800           0   0.00000     -0.301140E-02
     11222 MEMB     90       PVCL2    H13Y     HAL2     0.900000E-01   1.00800           0   0.00000     -0.301140E-02
     11223 MEMB     90       PVCL2    CD14     CTL2    -0.180000       12.0110           0   0.00000     -0.301140E-02
     11224 MEMB     90       PVCL2    H14X     HAL2     0.900000E-01   1.00800           0   0.00000     -0.301140E-02
     11225 MEMB     90       PVCL2    H14Y     HAL2     0.900000E-01   1.00800           0   0.00000     -0.301140E-02
     11226 MEMB     90       PVCL2    CD15     CTL2    -0.180000       12.0110           0   0.00000     -0.301140E-02
     11227 MEMB     90       PVCL2    H15X     HAL2     0.900000E-01   1.00800           0   0.00000     -0.301140E-02
     11228 MEMB     90       PVCL2    H15Y     HAL2     0.900000E-01   1.00800           0   0.00000     -0.301140E-02
     11229 MEMB     90       PVCL2    CD16     CTL3    -0.270000       12.0110           0   0.00000     -0.301140E-02
     11230 MEMB     90       PVCL2    H16X     HAL3     0.900000E-01   1.00800           0   0.00000     -0.301140E-02
     11231 MEMB     90       PVCL2    H16Y     HAL3     0.900000E-01   1.00800           0   0.00000     -0.301140E-02
     11232 MEMB     90       PVCL2    H16Z     HAL3     0.900000E-01   1.00800           0   0.00000     -0.301140E-02
     11233 MEMB     91       PMPE     N        NH3L    -0.300000       14.0070           0   0.00000     -0.301140E-02
     11234 MEMB     91       PMPE     HN1      HCL      0.330000       1.00800           0   0.00000     -0.301140E-02
     11235 MEMB     91       PMPE     HN2      HCL      0.330000       1.00800           0   0.00000     -0.301140E-02
     11236 MEMB     91       PMPE     HN3      HCL      0.330000       1.00800           0   0.00000     -0.301140E-02
     11237 MEMB     91       PMPE     C12      CTL2     0.130000       12.0110           0   0.00000     -0.301140E-02
     11238 MEMB     91       PMPE     H12A     HAL2     0.900000E-01   1.00800           0   0.00000     -0.301140E-02
     11239 MEMB     91       PMPE     H12B     HAL2     0.900000E-01   1.00800           0   0.00000     -0.301140E-02
     11240 MEMB     91       PMPE     C11      CTL2    -0.800000E-01   12.0110           0   0.00000     -0.301140E-02
     11241 MEMB     91       PMPE     H11A     HAL2     0.900000E-01   1.00800           0   0.00000     -0.301140E-02
     11242 MEMB     91       PMPE     H11B     HAL2     0.900000E-01   1.00800           0   0.00000     -0.301140E-02
     11243 MEMB     91       PMPE     P        PL        1.50000       30.9740           0   0.00000     -0.301140E-02
     11244 MEMB     91       PMPE     O13      O2L     -0.780000       15.9994           0   0.00000     -0.301140E-02
     11245 MEMB     91       PMPE     O14      O2L     -0.780000       15.9994           0   0.00000     -0.301140E-02
     11246 MEMB     91       PMPE     O11      OSLP    -0.570000       15.9994           0   0.00000     -0.301140E-02
     11247 MEMB     91       PMPE     O12      OSLP    -0.570000       15.9994           0   0.00000     -0.301140E-02
     11248 MEMB     91       PMPE     C1       CTL2    -0.800000E-01   12.0110           0   0.00000     -0.301140E-02
     11249 MEMB     91       PMPE     HA       HAL2     0.900000E-01   1.00800           0   0.00000     -0.301140E-02
     11250 MEMB     91       PMPE     HB       HAL2     0.900000E-01   1.00800           0   0.00000     -0.301140E-02
     11251 MEMB     91       PMPE     C2       CTL1     0.170000       12.0110           0   0.00000     -0.301140E-02
     11252 MEMB     91       PMPE     HS       HAL1     0.900000E-01   1.00800           0   0.00000     -0.301140E-02
     11253 MEMB     91       PMPE     O21      OSL     -0.490000       15.9994           0   0.00000     -0.301140E-02
     11254 MEMB     91       PMPE     C21      CL       0.900000       12.0110           0   0.00000     -0.301140E-02
     11255 MEMB     91       PMPE     O22      OBL     -0.630000       15.9994           0   0.00000     -0.301140E-02
     11256 MEMB     91       PMPE     C22      CTL2    -0.220000       12.0110           0   0.00000     -0.301140E-02
     11257 MEMB     91       PMPE     H2R      HAL2     0.900000E-01   1.00800           0   0.00000     -0.301140E-02
     11258 MEMB     91       PMPE     H2S      HAL2     0.900000E-01   1.00800           0   0.00000     -0.301140E-02
     11259 MEMB     91       PMPE     C3       CTL2     0.800000E-01   12.0110           0   0.00000     -0.301140E-02
     11260 MEMB     91       PMPE     HX       HAL2     0.900000E-01   1.00800           0   0.00000     -0.301140E-02
     11261 MEMB     91       PMPE     HY       HAL2     0.900000E-01   1.00800           0   0.00000     -0.301140E-02
     11262 MEMB     91       PMPE     O31      OSL     -0.490000       15.9994           0   0.00000     -0.301140E-02
     11263 MEMB     91       PMPE     C31      CL       0.900000       12.0110           0   0.00000     -0.301140E-02
     11264 MEMB     91       PMPE     O32      OBL     -0.630000       15.9994           0   0.00000     -0.301140E-02
     11265 MEMB     91       PMPE     C32      CTL2    -0.220000       12.0110           0   0.00000     -0.301140E-02
     11266 MEMB     91       PMPE     H2X      HAL2     0.900000E-01   1.00800           0   0.00000     -0.301140E-02
     11267 MEMB     91       PMPE     H2Y      HAL2     0.900000E-01   1.00800           0   0.00000     -0.301140E-02
     11268 MEMB     91       PMPE     C23      CTL2    -0.180000       12.0110           0   0.00000     -0.301140E-02
     11269 MEMB     91       PMPE     H3R      HAL2     0.900000E-01   1.00800           0   0.00000     -0.301140E-02
     11270 MEMB     91       PMPE     H3S      HAL2     0.900000E-01   1.00800           0   0.00000     -0.301140E-02
     11271 MEMB     91       PMPE     C24      CTL2    -0.180000       12.0110           0   0.00000     -0.301140E-02
     11272 MEMB     91       PMPE     H4R      HAL2     0.900000E-01   1.00800           0   0.00000     -0.301140E-02
     11273 MEMB     91       PMPE     H4S      HAL2     0.900000E-01   1.00800           0   0.00000     -0.301140E-02
     11274 MEMB     91       PMPE     C25      CTL2    -0.180000       12.0110           0   0.00000     -0.301140E-02
     11275 MEMB     91       PMPE     H5R      HAL2     0.900000E-01   1.00800           0   0.00000     -0.301140E-02
     11276 MEMB     91       PMPE     H5S      HAL2     0.900000E-01   1.00800           0   0.00000     -0.301140E-02
     11277 MEMB     91       PMPE     C26      CTL2    -0.180000       12.0110           0   0.00000     -0.301140E-02
     11278 MEMB     91       PMPE     H6R      HAL2     0.900000E-01   1.00800           0   0.00000     -0.301140E-02
     11279 MEMB     91       PMPE     H6S      HAL2     0.900000E-01   1.00800           0   0.00000     -0.301140E-02
     11280 MEMB     91       PMPE     C27      CTL2    -0.180000       12.0110           0   0.00000     -0.301140E-02
     11281 MEMB     91       PMPE     H7R      HAL2     0.900000E-01   1.00800           0   0.00000     -0.301140E-02
     11282 MEMB     91       PMPE     H7S      HAL2     0.900000E-01   1.00800           0   0.00000     -0.301140E-02
     11283 MEMB     91       PMPE     C28      CTL2    -0.180000       12.0110           0   0.00000     -0.301140E-02
     11284 MEMB     91       PMPE     H8R      HAL2     0.900000E-01   1.00800           0   0.00000     -0.301140E-02
     11285 MEMB     91       PMPE     H8S      HAL2     0.900000E-01   1.00800           0   0.00000     -0.301140E-02
     11286 MEMB     91       PMPE     C29      CG3RC1  -0.900000E-01   12.0110           0   0.00000     -0.301140E-02
     11287 MEMB     91       PMPE     H9R      HGA1     0.900000E-01   1.00800           0   0.00000     -0.301140E-02
     11288 MEMB     91       PMPE     C217     CG3C31  -0.180000       12.0110           0   0.00000     -0.301140E-02
     11289 MEMB     91       PMPE     H17R     HGA2     0.900000E-01   1.00800           0   0.00000     -0.301140E-02
     11290 MEMB     91       PMPE     H17S     HGA2     0.900000E-01   1.00800           0   0.00000     -0.301140E-02
     11291 MEMB     91       PMPE     C210     CG3RC1  -0.900000E-01   12.0110           0   0.00000     -0.301140E-02
     11292 MEMB     91       PMPE     H10R     HGA1     0.900000E-01   1.00800           0   0.00000     -0.301140E-02
     11293 MEMB     91       PMPE     C211     CTL2    -0.180000       12.0110           0   0.00000     -0.301140E-02
     11294 MEMB     91       PMPE     H11R     HAL2     0.900000E-01   1.00800           0   0.00000     -0.301140E-02
     11295 MEMB     91       PMPE     H11S     HAL2     0.900000E-01   1.00800           0   0.00000     -0.301140E-02
     11296 MEMB     91       PMPE     C212     CTL2    -0.180000       12.0110           0   0.00000     -0.301140E-02
     11297 MEMB     91       PMPE     H12R     HAL2     0.900000E-01   1.00800           0   0.00000     -0.301140E-02
     11298 MEMB     91       PMPE     H12S     HAL2     0.900000E-01   1.00800           0   0.00000     -0.301140E-02
     11299 MEMB     91       PMPE     C213     CTL2    -0.180000       12.0110           0   0.00000     -0.301140E-02
     11300 MEMB     91       PMPE     H13R     HAL2     0.900000E-01   1.00800           0   0.00000     -0.301140E-02
     11301 MEMB     91       PMPE     H13S     HAL2     0.900000E-01   1.00800           0   0.00000     -0.301140E-02
     11302 MEMB     91       PMPE     C214     CTL2    -0.180000       12.0110           0   0.00000     -0.301140E-02
     11303 MEMB     91       PMPE     H14R     HAL2     0.900000E-01   1.00800           0   0.00000     -0.301140E-02
     11304 MEMB     91       PMPE     H14S     HAL2     0.900000E-01   1.00800           0   0.00000     -0.301140E-02
     11305 MEMB     91       PMPE     C215     CTL2    -0.180000       12.0110           0   0.00000     -0.301140E-02
     11306 MEMB     91       PMPE     H15R     HAL2     0.900000E-01   1.00800           0   0.00000     -0.301140E-02
     11307 MEMB     91       PMPE     H15S     HAL2     0.900000E-01   1.00800           0   0.00000     -0.301140E-02
     11308 MEMB     91       PMPE     C216     CTL3    -0.270000       12.0110           0   0.00000     -0.301140E-02
     11309 MEMB     91       PMPE     H16R     HAL3     0.900000E-01   1.00800           0   0.00000     -0.301140E-02
     11310 MEMB     91       PMPE     H16S     HAL3     0.900000E-01   1.00800           0   0.00000     -0.301140E-02
     11311 MEMB     91       PMPE     H16T     HAL3     0.900000E-01   1.00800           0   0.00000     -0.301140E-02
     11312 MEMB     91       PMPE     C33      CTL2    -0.180000       12.0110           0   0.00000     -0.301140E-02
     11313 MEMB     91       PMPE     H3X      HAL2     0.900000E-01   1.00800           0   0.00000     -0.301140E-02
     11314 MEMB     91       PMPE     H3Y      HAL2     0.900000E-01   1.00800           0   0.00000     -0.301140E-02
     11315 MEMB     91       PMPE     C34      CTL2    -0.180000       12.0110           0   0.00000     -0.301140E-02
     11316 MEMB     91       PMPE     H4X      HAL2     0.900000E-01   1.00800           0   0.00000     -0.301140E-02
     11317 MEMB     91       PMPE     H4Y      HAL2     0.900000E-01   1.00800           0   0.00000     -0.301140E-02
     11318 MEMB     91       PMPE     C35      CTL2    -0.180000       12.0110           0   0.00000     -0.301140E-02
     11319 MEMB     91       PMPE     H5X      HAL2     0.900000E-01   1.00800           0   0.00000     -0.301140E-02
     11320 MEMB     91       PMPE     H5Y      HAL2     0.900000E-01   1.00800           0   0.00000     -0.301140E-02
     11321 MEMB     91       PMPE     C36      CTL2    -0.180000       12.0110           0   0.00000     -0.301140E-02
     11322 MEMB     91       PMPE     H6X      HAL2     0.900000E-01   1.00800           0   0.00000     -0.301140E-02
     11323 MEMB     91       PMPE     H6Y      HAL2     0.900000E-01   1.00800           0   0.00000     -0.301140E-02
     11324 MEMB     91       PMPE     C37      CTL2    -0.180000       12.0110           0   0.00000     -0.301140E-02
     11325 MEMB     91       PMPE     H7X      HAL2     0.900000E-01   1.00800           0   0.00000     -0.301140E-02
     11326 MEMB     91       PMPE     H7Y      HAL2     0.900000E-01   1.00800           0   0.00000     -0.301140E-02
     11327 MEMB     91       PMPE     C38      CTL2    -0.180000       12.0110           0   0.00000     -0.301140E-02
     11328 MEMB     91       PMPE     H8X      HAL2     0.900000E-01   1.00800           0   0.00000     -0.301140E-02
     11329 MEMB     91       PMPE     H8Y      HAL2     0.900000E-01   1.00800           0   0.00000     -0.301140E-02
     11330 MEMB     91       PMPE     C39      CTL2    -0.180000       12.0110           0   0.00000     -0.301140E-02
     11331 MEMB     91       PMPE     H9X      HAL2     0.900000E-01   1.00800           0   0.00000     -0.301140E-02
     11332 MEMB     91       PMPE     H9Y      HAL2     0.900000E-01   1.00800           0   0.00000     -0.301140E-02
     11333 MEMB     91       PMPE     C310     CTL2    -0.180000       12.0110           0   0.00000     -0.301140E-02
     11334 MEMB     91       PMPE     H10X     HAL2     0.900000E-01   1.00800           0   0.00000     -0.301140E-02
     11335 MEMB     91       PMPE     H10Y     HAL2     0.900000E-01   1.00800           0   0.00000     -0.301140E-02
     11336 MEMB     91       PMPE     C311     CTL2    -0.180000       12.0110           0   0.00000     -0.301140E-02
     11337 MEMB     91       PMPE     H11X     HAL2     0.900000E-01   1.00800           0   0.00000     -0.301140E-02
     11338 MEMB     91       PMPE     H11Y     HAL2     0.900000E-01   1.00800           0   0.00000     -0.301140E-02
     11339 MEMB     91       PMPE     C312     CTL2    -0.180000       12.0110           0   0.00000     -0.301140E-02
     11340 MEMB     91       PMPE     H12X     HAL2     0.900000E-01   1.00800           0   0.00000     -0.301140E-02
     11341 MEMB     91       PMPE     H12Y     HAL2     0.900000E-01   1.00800           0   0.00000     -0.301140E-02
     11342 MEMB     91       PMPE     C313     CTL2    -0.180000       12.0110           0   0.00000     -0.301140E-02
     11343 MEMB     91       PMPE     H13X     HAL2     0.900000E-01   1.00800           0   0.00000     -0.301140E-02
     11344 MEMB     91       PMPE     H13Y     HAL2     0.900000E-01   1.00800           0   0.00000     -0.301140E-02
     11345 MEMB     91       PMPE     C314     CTL2    -0.180000       12.0110           0   0.00000     -0.301140E-02
     11346 MEMB     91       PMPE     H14X     HAL2     0.900000E-01   1.00800           0   0.00000     -0.301140E-02
     11347 MEMB     91       PMPE     H14Y     HAL2     0.900000E-01   1.00800           0   0.00000     -0.301140E-02
     11348 MEMB     91       PMPE     C315     CTL2    -0.180000       12.0110           0   0.00000     -0.301140E-02
     11349 MEMB     91       PMPE     H15X     HAL2     0.900000E-01   1.00800           0   0.00000     -0.301140E-02
     11350 MEMB     91       PMPE     H15Y     HAL2     0.900000E-01   1.00800           0   0.00000     -0.301140E-02
     11351 MEMB     91       PMPE     C316     CTL3    -0.270000       12.0110           0   0.00000     -0.301140E-02
     11352 MEMB     91       PMPE     H16X     HAL3     0.900000E-01   1.00800           0   0.00000     -0.301140E-02
     11353 MEMB     91       PMPE     H16Y     HAL3     0.900000E-01   1.00800           0   0.00000     -0.301140E-02
     11354 MEMB     91       PMPE     H16Z     HAL3     0.900000E-01   1.00800           0   0.00000     -0.301140E-02
     11355 MEMB     92       PMPE     N        NH3L    -0.300000       14.0070           0   0.00000     -0.301140E-02
     11356 MEMB     92       PMPE     HN1      HCL      0.330000       1.00800           0   0.00000     -0.301140E-02
     11357 MEMB     92       PMPE     HN2      HCL      0.330000       1.00800           0   0.00000     -0.301140E-02
     11358 MEMB     92       PMPE     HN3      HCL      0.330000       1.00800           0   0.00000     -0.301140E-02
     11359 MEMB     92       PMPE     C12      CTL2     0.130000       12.0110           0   0.00000     -0.301140E-02
     11360 MEMB     92       PMPE     H12A     HAL2     0.900000E-01   1.00800           0   0.00000     -0.301140E-02
     11361 MEMB     92       PMPE     H12B     HAL2     0.900000E-01   1.00800           0   0.00000     -0.301140E-02
     11362 MEMB     92       PMPE     C11      CTL2    -0.800000E-01   12.0110           0   0.00000     -0.301140E-02
     11363 MEMB     92       PMPE     H11A     HAL2     0.900000E-01   1.00800           0   0.00000     -0.301140E-02
     11364 MEMB     92       PMPE     H11B     HAL2     0.900000E-01   1.00800           0   0.00000     -0.301140E-02
     11365 MEMB     92       PMPE     P        PL        1.50000       30.9740           0   0.00000     -0.301140E-02
     11366 MEMB     92       PMPE     O13      O2L     -0.780000       15.9994           0   0.00000     -0.301140E-02
     11367 MEMB     92       PMPE     O14      O2L     -0.780000       15.9994           0   0.00000     -0.301140E-02
     11368 MEMB     92       PMPE     O11      OSLP    -0.570000       15.9994           0   0.00000     -0.301140E-02
     11369 MEMB     92       PMPE     O12      OSLP    -0.570000       15.9994           0   0.00000     -0.301140E-02
     11370 MEMB     92       PMPE     C1       CTL2    -0.800000E-01   12.0110           0   0.00000     -0.301140E-02
     11371 MEMB     92       PMPE     HA       HAL2     0.900000E-01   1.00800           0   0.00000     -0.301140E-02
     11372 MEMB     92       PMPE     HB       HAL2     0.900000E-01   1.00800           0   0.00000     -0.301140E-02
     11373 MEMB     92       PMPE     C2       CTL1     0.170000       12.0110           0   0.00000     -0.301140E-02
     11374 MEMB     92       PMPE     HS       HAL1     0.900000E-01   1.00800           0   0.00000     -0.301140E-02
     11375 MEMB     92       PMPE     O21      OSL     -0.490000       15.9994           0   0.00000     -0.301140E-02
     11376 MEMB     92       PMPE     C21      CL       0.900000       12.0110           0   0.00000     -0.301140E-02
     11377 MEMB     92       PMPE     O22      OBL     -0.630000       15.9994           0   0.00000     -0.301140E-02
     11378 MEMB     92       PMPE     C22      CTL2    -0.220000       12.0110           0   0.00000     -0.301140E-02
     11379 MEMB     92       PMPE     H2R      HAL2     0.900000E-01   1.00800           0   0.00000     -0.301140E-02
     11380 MEMB     92       PMPE     H2S      HAL2     0.900000E-01   1.00800           0   0.00000     -0.301140E-02
     11381 MEMB     92       PMPE     C3       CTL2     0.800000E-01   12.0110           0   0.00000     -0.301140E-02
     11382 MEMB     92       PMPE     HX       HAL2     0.900000E-01   1.00800           0   0.00000     -0.301140E-02
     11383 MEMB     92       PMPE     HY       HAL2     0.900000E-01   1.00800           0   0.00000     -0.301140E-02
     11384 MEMB     92       PMPE     O31      OSL     -0.490000       15.9994           0   0.00000     -0.301140E-02
     11385 MEMB     92       PMPE     C31      CL       0.900000       12.0110           0   0.00000     -0.301140E-02
     11386 MEMB     92       PMPE     O32      OBL     -0.630000       15.9994           0   0.00000     -0.301140E-02
     11387 MEMB     92       PMPE     C32      CTL2    -0.220000       12.0110           0   0.00000     -0.301140E-02
     11388 MEMB     92       PMPE     H2X      HAL2     0.900000E-01   1.00800           0   0.00000     -0.301140E-02
     11389 MEMB     92       PMPE     H2Y      HAL2     0.900000E-01   1.00800           0   0.00000     -0.301140E-02
     11390 MEMB     92       PMPE     C23      CTL2    -0.180000       12.0110           0   0.00000     -0.301140E-02
     11391 MEMB     92       PMPE     H3R      HAL2     0.900000E-01   1.00800           0   0.00000     -0.301140E-02
     11392 MEMB     92       PMPE     H3S      HAL2     0.900000E-01   1.00800           0   0.00000     -0.301140E-02
     11393 MEMB     92       PMPE     C24      CTL2    -0.180000       12.0110           0   0.00000     -0.301140E-02
     11394 MEMB     92       PMPE     H4R      HAL2     0.900000E-01   1.00800           0   0.00000     -0.301140E-02
     11395 MEMB     92       PMPE     H4S      HAL2     0.900000E-01   1.00800           0   0.00000     -0.301140E-02
     11396 MEMB     92       PMPE     C25      CTL2    -0.180000       12.0110           0   0.00000     -0.301140E-02
     11397 MEMB     92       PMPE     H5R      HAL2     0.900000E-01   1.00800           0   0.00000     -0.301140E-02
     11398 MEMB     92       PMPE     H5S      HAL2     0.900000E-01   1.00800           0   0.00000     -0.301140E-02
     11399 MEMB     92       PMPE     C26      CTL2    -0.180000       12.0110           0   0.00000     -0.301140E-02
     11400 MEMB     92       PMPE     H6R      HAL2     0.900000E-01   1.00800           0   0.00000     -0.301140E-02
     11401 MEMB     92       PMPE     H6S      HAL2     0.900000E-01   1.00800           0   0.00000     -0.301140E-02
     11402 MEMB     92       PMPE     C27      CTL2    -0.180000       12.0110           0   0.00000     -0.301140E-02
     11403 MEMB     92       PMPE     H7R      HAL2     0.900000E-01   1.00800           0   0.00000     -0.301140E-02
     11404 MEMB     92       PMPE     H7S      HAL2     0.900000E-01   1.00800           0   0.00000     -0.301140E-02
     11405 MEMB     92       PMPE     C28      CTL2    -0.180000       12.0110           0   0.00000     -0.301140E-02
     11406 MEMB     92       PMPE     H8R      HAL2     0.900000E-01   1.00800           0   0.00000     -0.301140E-02
     11407 MEMB     92       PMPE     H8S      HAL2     0.900000E-01   1.00800           0   0.00000     -0.301140E-02
     11408 MEMB     92       PMPE     C29      CG3RC1  -0.900000E-01   12.0110           0   0.00000     -0.301140E-02
     11409 MEMB     92       PMPE     H9R      HGA1     0.900000E-01   1.00800           0   0.00000     -0.301140E-02
     11410 MEMB     92       PMPE     C217     CG3C31  -0.180000       12.0110           0   0.00000     -0.301140E-02
     11411 MEMB     92       PMPE     H17R     HGA2     0.900000E-01   1.00800           0   0.00000     -0.301140E-02
     11412 MEMB     92       PMPE     H17S     HGA2     0.900000E-01   1.00800           0   0.00000     -0.301140E-02
     11413 MEMB     92       PMPE     C210     CG3RC1  -0.900000E-01   12.0110           0   0.00000     -0.301140E-02
     11414 MEMB     92       PMPE     H10R     HGA1     0.900000E-01   1.00800           0   0.00000     -0.301140E-02
     11415 MEMB     92       PMPE     C211     CTL2    -0.180000       12.0110           0   0.00000     -0.301140E-02
     11416 MEMB     92       PMPE     H11R     HAL2     0.900000E-01   1.00800           0   0.00000     -0.301140E-02
     11417 MEMB     92       PMPE     H11S     HAL2     0.900000E-01   1.00800           0   0.00000     -0.301140E-02
     11418 MEMB     92       PMPE     C212     CTL2    -0.180000       12.0110           0   0.00000     -0.301140E-02
     11419 MEMB     92       PMPE     H12R     HAL2     0.900000E-01   1.00800           0   0.00000     -0.301140E-02
     11420 MEMB     92       PMPE     H12S     HAL2     0.900000E-01   1.00800           0   0.00000     -0.301140E-02
     11421 MEMB     92       PMPE     C213     CTL2    -0.180000       12.0110           0   0.00000     -0.301140E-02
     11422 MEMB     92       PMPE     H13R     HAL2     0.900000E-01   1.00800           0   0.00000     -0.301140E-02
     11423 MEMB     92       PMPE     H13S     HAL2     0.900000E-01   1.00800           0   0.00000     -0.301140E-02
     11424 MEMB     92       PMPE     C214     CTL2    -0.180000       12.0110           0   0.00000     -0.301140E-02
     11425 MEMB     92       PMPE     H14R     HAL2     0.900000E-01   1.00800           0   0.00000     -0.301140E-02
     11426 MEMB     92       PMPE     H14S     HAL2     0.900000E-01   1.00800           0   0.00000     -0.301140E-02
     11427 MEMB     92       PMPE     C215     CTL2    -0.180000       12.0110           0   0.00000     -0.301140E-02
     11428 MEMB     92       PMPE     H15R     HAL2     0.900000E-01   1.00800           0   0.00000     -0.301140E-02
     11429 MEMB     92       PMPE     H15S     HAL2     0.900000E-01   1.00800           0   0.00000     -0.301140E-02
     11430 MEMB     92       PMPE     C216     CTL3    -0.270000       12.0110           0   0.00000     -0.301140E-02
     11431 MEMB     92       PMPE     H16R     HAL3     0.900000E-01   1.00800           0   0.00000     -0.301140E-02
     11432 MEMB     92       PMPE     H16S     HAL3     0.900000E-01   1.00800           0   0.00000     -0.301140E-02
     11433 MEMB     92       PMPE     H16T     HAL3     0.900000E-01   1.00800           0   0.00000     -0.301140E-02
     11434 MEMB     92       PMPE     C33      CTL2    -0.180000       12.0110           0   0.00000     -0.301140E-02
     11435 MEMB     92       PMPE     H3X      HAL2     0.900000E-01   1.00800           0   0.00000     -0.301140E-02
     11436 MEMB     92       PMPE     H3Y      HAL2     0.900000E-01   1.00800           0   0.00000     -0.301140E-02
     11437 MEMB     92       PMPE     C34      CTL2    -0.180000       12.0110           0   0.00000     -0.301140E-02
     11438 MEMB     92       PMPE     H4X      HAL2     0.900000E-01   1.00800           0   0.00000     -0.301140E-02
     11439 MEMB     92       PMPE     H4Y      HAL2     0.900000E-01   1.00800           0   0.00000     -0.301140E-02
     11440 MEMB     92       PMPE     C35      CTL2    -0.180000       12.0110           0   0.00000     -0.301140E-02
     11441 MEMB     92       PMPE     H5X      HAL2     0.900000E-01   1.00800           0   0.00000     -0.301140E-02
     11442 MEMB     92       PMPE     H5Y      HAL2     0.900000E-01   1.00800           0   0.00000     -0.301140E-02
     11443 MEMB     92       PMPE     C36      CTL2    -0.180000       12.0110           0   0.00000     -0.301140E-02
     11444 MEMB     92       PMPE     H6X      HAL2     0.900000E-01   1.00800           0   0.00000     -0.301140E-02
     11445 MEMB     92       PMPE     H6Y      HAL2     0.900000E-01   1.00800           0   0.00000     -0.301140E-02
     11446 MEMB     92       PMPE     C37      CTL2    -0.180000       12.0110           0   0.00000     -0.301140E-02
     11447 MEMB     92       PMPE     H7X      HAL2     0.900000E-01   1.00800           0   0.00000     -0.301140E-02
     11448 MEMB     92       PMPE     H7Y      HAL2     0.900000E-01   1.00800           0   0.00000     -0.301140E-02
     11449 MEMB     92       PMPE     C38      CTL2    -0.180000       12.0110           0   0.00000     -0.301140E-02
     11450 MEMB     92       PMPE     H8X      HAL2     0.900000E-01   1.00800           0   0.00000     -0.301140E-02
     11451 MEMB     92       PMPE     H8Y      HAL2     0.900000E-01   1.00800           0   0.00000     -0.301140E-02
     11452 MEMB     92       PMPE     C39      CTL2    -0.180000       12.0110           0   0.00000     -0.301140E-02
     11453 MEMB     92       PMPE     H9X      HAL2     0.900000E-01   1.00800           0   0.00000     -0.301140E-02
     11454 MEMB     92       PMPE     H9Y      HAL2     0.900000E-01   1.00800           0   0.00000     -0.301140E-02
     11455 MEMB     92       PMPE     C310     CTL2    -0.180000       12.0110           0   0.00000     -0.301140E-02
     11456 MEMB     92       PMPE     H10X     HAL2     0.900000E-01   1.00800           0   0.00000     -0.301140E-02
     11457 MEMB     92       PMPE     H10Y     HAL2     0.900000E-01   1.00800           0   0.00000     -0.301140E-02
     11458 MEMB     92       PMPE     C311     CTL2    -0.180000       12.0110           0   0.00000     -0.301140E-02
     11459 MEMB     92       PMPE     H11X     HAL2     0.900000E-01   1.00800           0   0.00000     -0.301140E-02
     11460 MEMB     92       PMPE     H11Y     HAL2     0.900000E-01   1.00800           0   0.00000     -0.301140E-02
     11461 MEMB     92       PMPE     C312     CTL2    -0.180000       12.0110           0   0.00000     -0.301140E-02
     11462 MEMB     92       PMPE     H12X     HAL2     0.900000E-01   1.00800           0   0.00000     -0.301140E-02
     11463 MEMB     92       PMPE     H12Y     HAL2     0.900000E-01   1.00800           0   0.00000     -0.301140E-02
     11464 MEMB     92       PMPE     C313     CTL2    -0.180000       12.0110           0   0.00000     -0.301140E-02
     11465 MEMB     92       PMPE     H13X     HAL2     0.900000E-01   1.00800           0   0.00000     -0.301140E-02
     11466 MEMB     92       PMPE     H13Y     HAL2     0.900000E-01   1.00800           0   0.00000     -0.301140E-02
     11467 MEMB     92       PMPE     C314     CTL2    -0.180000       12.0110           0   0.00000     -0.301140E-02
     11468 MEMB     92       PMPE     H14X     HAL2     0.900000E-01   1.00800           0   0.00000     -0.301140E-02
     11469 MEMB     92       PMPE     H14Y     HAL2     0.900000E-01   1.00800           0   0.00000     -0.301140E-02
     11470 MEMB     92       PMPE     C315     CTL2    -0.180000       12.0110           0   0.00000     -0.301140E-02
     11471 MEMB     92       PMPE     H15X     HAL2     0.900000E-01   1.00800           0   0.00000     -0.301140E-02
     11472 MEMB     92       PMPE     H15Y     HAL2     0.900000E-01   1.00800           0   0.00000     -0.301140E-02
     11473 MEMB     92       PMPE     C316     CTL3    -0.270000       12.0110           0   0.00000     -0.301140E-02
     11474 MEMB     92       PMPE     H16X     HAL3     0.900000E-01   1.00800           0   0.00000     -0.301140E-02
     11475 MEMB     92       PMPE     H16Y     HAL3     0.900000E-01   1.00800           0   0.00000     -0.301140E-02
     11476 MEMB     92       PMPE     H16Z     HAL3     0.900000E-01   1.00800           0   0.00000     -0.301140E-02
     11477 MEMB     93       PMPE     N        NH3L    -0.300000       14.0070           0   0.00000     -0.301140E-02
     11478 MEMB     93       PMPE     HN1      HCL      0.330000       1.00800           0   0.00000     -0.301140E-02
     11479 MEMB     93       PMPE     HN2      HCL      0.330000       1.00800           0   0.00000     -0.301140E-02
     11480 MEMB     93       PMPE     HN3      HCL      0.330000       1.00800           0   0.00000     -0.301140E-02
     11481 MEMB     93       PMPE     C12      CTL2     0.130000       12.0110           0   0.00000     -0.301140E-02
     11482 MEMB     93       PMPE     H12A     HAL2     0.900000E-01   1.00800           0   0.00000     -0.301140E-02
     11483 MEMB     93       PMPE     H12B     HAL2     0.900000E-01   1.00800           0   0.00000     -0.301140E-02
     11484 MEMB     93       PMPE     C11      CTL2    -0.800000E-01   12.0110           0   0.00000     -0.301140E-02
     11485 MEMB     93       PMPE     H11A     HAL2     0.900000E-01   1.00800           0   0.00000     -0.301140E-02
     11486 MEMB     93       PMPE     H11B     HAL2     0.900000E-01   1.00800           0   0.00000     -0.301140E-02
     11487 MEMB     93       PMPE     P        PL        1.50000       30.9740           0   0.00000     -0.301140E-02
     11488 MEMB     93       PMPE     O13      O2L     -0.780000       15.9994           0   0.00000     -0.301140E-02
     11489 MEMB     93       PMPE     O14      O2L     -0.780000       15.9994           0   0.00000     -0.301140E-02
     11490 MEMB     93       PMPE     O11      OSLP    -0.570000       15.9994           0   0.00000     -0.301140E-02
     11491 MEMB     93       PMPE     O12      OSLP    -0.570000       15.9994           0   0.00000     -0.301140E-02
     11492 MEMB     93       PMPE     C1       CTL2    -0.800000E-01   12.0110           0   0.00000     -0.301140E-02
     11493 MEMB     93       PMPE     HA       HAL2     0.900000E-01   1.00800           0   0.00000     -0.301140E-02
     11494 MEMB     93       PMPE     HB       HAL2     0.900000E-01   1.00800           0   0.00000     -0.301140E-02
     11495 MEMB     93       PMPE     C2       CTL1     0.170000       12.0110           0   0.00000     -0.301140E-02
     11496 MEMB     93       PMPE     HS       HAL1     0.900000E-01   1.00800           0   0.00000     -0.301140E-02
     11497 MEMB     93       PMPE     O21      OSL     -0.490000       15.9994           0   0.00000     -0.301140E-02
     11498 MEMB     93       PMPE     C21      CL       0.900000       12.0110           0   0.00000     -0.301140E-02
     11499 MEMB     93       PMPE     O22      OBL     -0.630000       15.9994           0   0.00000     -0.301140E-02
     11500 MEMB     93       PMPE     C22      CTL2    -0.220000       12.0110           0   0.00000     -0.301140E-02
     11501 MEMB     93       PMPE     H2R      HAL2     0.900000E-01   1.00800           0   0.00000     -0.301140E-02
     11502 MEMB     93       PMPE     H2S      HAL2     0.900000E-01   1.00800           0   0.00000     -0.301140E-02
     11503 MEMB     93       PMPE     C3       CTL2     0.800000E-01   12.0110           0   0.00000     -0.301140E-02
     11504 MEMB     93       PMPE     HX       HAL2     0.900000E-01   1.00800           0   0.00000     -0.301140E-02
     11505 MEMB     93       PMPE     HY       HAL2     0.900000E-01   1.00800           0   0.00000     -0.301140E-02
     11506 MEMB     93       PMPE     O31      OSL     -0.490000       15.9994           0   0.00000     -0.301140E-02
     11507 MEMB     93       PMPE     C31      CL       0.900000       12.0110           0   0.00000     -0.301140E-02
     11508 MEMB     93       PMPE     O32      OBL     -0.630000       15.9994           0   0.00000     -0.301140E-02
     11509 MEMB     93       PMPE     C32      CTL2    -0.220000       12.0110           0   0.00000     -0.301140E-02
     11510 MEMB     93       PMPE     H2X      HAL2     0.900000E-01   1.00800           0   0.00000     -0.301140E-02
     11511 MEMB     93       PMPE     H2Y      HAL2     0.900000E-01   1.00800           0   0.00000     -0.301140E-02
     11512 MEMB     93       PMPE     C23      CTL2    -0.180000       12.0110           0   0.00000     -0.301140E-02
     11513 MEMB     93       PMPE     H3R      HAL2     0.900000E-01   1.00800           0   0.00000     -0.301140E-02
     11514 MEMB     93       PMPE     H3S      HAL2     0.900000E-01   1.00800           0   0.00000     -0.301140E-02
     11515 MEMB     93       PMPE     C24      CTL2    -0.180000       12.0110           0   0.00000     -0.301140E-02
     11516 MEMB     93       PMPE     H4R      HAL2     0.900000E-01   1.00800           0   0.00000     -0.301140E-02
     11517 MEMB     93       PMPE     H4S      HAL2     0.900000E-01   1.00800           0   0.00000     -0.301140E-02
     11518 MEMB     93       PMPE     C25      CTL2    -0.180000       12.0110           0   0.00000     -0.301140E-02
     11519 MEMB     93       PMPE     H5R      HAL2     0.900000E-01   1.00800           0   0.00000     -0.301140E-02
     11520 MEMB     93       PMPE     H5S      HAL2     0.900000E-01   1.00800           0   0.00000     -0.301140E-02
     11521 MEMB     93       PMPE     C26      CTL2    -0.180000       12.0110           0   0.00000     -0.301140E-02
     11522 MEMB     93       PMPE     H6R      HAL2     0.900000E-01   1.00800           0   0.00000     -0.301140E-02
     11523 MEMB     93       PMPE     H6S      HAL2     0.900000E-01   1.00800           0   0.00000     -0.301140E-02
     11524 MEMB     93       PMPE     C27      CTL2    -0.180000       12.0110           0   0.00000     -0.301140E-02
     11525 MEMB     93       PMPE     H7R      HAL2     0.900000E-01   1.00800           0   0.00000     -0.301140E-02
     11526 MEMB     93       PMPE     H7S      HAL2     0.900000E-01   1.00800           0   0.00000     -0.301140E-02
     11527 MEMB     93       PMPE     C28      CTL2    -0.180000       12.0110           0   0.00000     -0.301140E-02
     11528 MEMB     93       PMPE     H8R      HAL2     0.900000E-01   1.00800           0   0.00000     -0.301140E-02
     11529 MEMB     93       PMPE     H8S      HAL2     0.900000E-01   1.00800           0   0.00000     -0.301140E-02
     11530 MEMB     93       PMPE     C29      CG3RC1  -0.900000E-01   12.0110           0   0.00000     -0.301140E-02
     11531 MEMB     93       PMPE     H9R      HGA1     0.900000E-01   1.00800           0   0.00000     -0.301140E-02
     11532 MEMB     93       PMPE     C217     CG3C31  -0.180000       12.0110           0   0.00000     -0.301140E-02
     11533 MEMB     93       PMPE     H17R     HGA2     0.900000E-01   1.00800           0   0.00000     -0.301140E-02
     11534 MEMB     93       PMPE     H17S     HGA2     0.900000E-01   1.00800           0   0.00000     -0.301140E-02
     11535 MEMB     93       PMPE     C210     CG3RC1  -0.900000E-01   12.0110           0   0.00000     -0.301140E-02
     11536 MEMB     93       PMPE     H10R     HGA1     0.900000E-01   1.00800           0   0.00000     -0.301140E-02
     11537 MEMB     93       PMPE     C211     CTL2    -0.180000       12.0110           0   0.00000     -0.301140E-02
     11538 MEMB     93       PMPE     H11R     HAL2     0.900000E-01   1.00800           0   0.00000     -0.301140E-02
     11539 MEMB     93       PMPE     H11S     HAL2     0.900000E-01   1.00800           0   0.00000     -0.301140E-02
     11540 MEMB     93       PMPE     C212     CTL2    -0.180000       12.0110           0   0.00000     -0.301140E-02
     11541 MEMB     93       PMPE     H12R     HAL2     0.900000E-01   1.00800           0   0.00000     -0.301140E-02
     11542 MEMB     93       PMPE     H12S     HAL2     0.900000E-01   1.00800           0   0.00000     -0.301140E-02
     11543 MEMB     93       PMPE     C213     CTL2    -0.180000       12.0110           0   0.00000     -0.301140E-02
     11544 MEMB     93       PMPE     H13R     HAL2     0.900000E-01   1.00800           0   0.00000     -0.301140E-02
     11545 MEMB     93       PMPE     H13S     HAL2     0.900000E-01   1.00800           0   0.00000     -0.301140E-02
     11546 MEMB     93       PMPE     C214     CTL2    -0.180000       12.0110           0   0.00000     -0.301140E-02
     11547 MEMB     93       PMPE     H14R     HAL2     0.900000E-01   1.00800           0   0.00000     -0.301140E-02
     11548 MEMB     93       PMPE     H14S     HAL2     0.900000E-01   1.00800           0   0.00000     -0.301140E-02
     11549 MEMB     93       PMPE     C215     CTL2    -0.180000       12.0110           0   0.00000     -0.301140E-02
     11550 MEMB     93       PMPE     H15R     HAL2     0.900000E-01   1.00800           0   0.00000     -0.301140E-02
     11551 MEMB     93       PMPE     H15S     HAL2     0.900000E-01   1.00800           0   0.00000     -0.301140E-02
     11552 MEMB     93       PMPE     C216     CTL3    -0.270000       12.0110           0   0.00000     -0.301140E-02
     11553 MEMB     93       PMPE     H16R     HAL3     0.900000E-01   1.00800           0   0.00000     -0.301140E-02
     11554 MEMB     93       PMPE     H16S     HAL3     0.900000E-01   1.00800           0   0.00000     -0.301140E-02
     11555 MEMB     93       PMPE     H16T     HAL3     0.900000E-01   1.00800           0   0.00000     -0.301140E-02
     11556 MEMB     93       PMPE     C33      CTL2    -0.180000       12.0110           0   0.00000     -0.301140E-02
     11557 MEMB     93       PMPE     H3X      HAL2     0.900000E-01   1.00800           0   0.00000     -0.301140E-02
     11558 MEMB     93       PMPE     H3Y      HAL2     0.900000E-01   1.00800           0   0.00000     -0.301140E-02
     11559 MEMB     93       PMPE     C34      CTL2    -0.180000       12.0110           0   0.00000     -0.301140E-02
     11560 MEMB     93       PMPE     H4X      HAL2     0.900000E-01   1.00800           0   0.00000     -0.301140E-02
     11561 MEMB     93       PMPE     H4Y      HAL2     0.900000E-01   1.00800           0   0.00000     -0.301140E-02
     11562 MEMB     93       PMPE     C35      CTL2    -0.180000       12.0110           0   0.00000     -0.301140E-02
     11563 MEMB     93       PMPE     H5X      HAL2     0.900000E-01   1.00800           0   0.00000     -0.301140E-02
     11564 MEMB     93       PMPE     H5Y      HAL2     0.900000E-01   1.00800           0   0.00000     -0.301140E-02
     11565 MEMB     93       PMPE     C36      CTL2    -0.180000       12.0110           0   0.00000     -0.301140E-02
     11566 MEMB     93       PMPE     H6X      HAL2     0.900000E-01   1.00800           0   0.00000     -0.301140E-02
     11567 MEMB     93       PMPE     H6Y      HAL2     0.900000E-01   1.00800           0   0.00000     -0.301140E-02
     11568 MEMB     93       PMPE     C37      CTL2    -0.180000       12.0110           0   0.00000     -0.301140E-02
     11569 MEMB     93       PMPE     H7X      HAL2     0.900000E-01   1.00800           0   0.00000     -0.301140E-02
     11570 MEMB     93       PMPE     H7Y      HAL2     0.900000E-01   1.00800           0   0.00000     -0.301140E-02
     11571 MEMB     93       PMPE     C38      CTL2    -0.180000       12.0110           0   0.00000     -0.301140E-02
     11572 MEMB     93       PMPE     H8X      HAL2     0.900000E-01   1.00800           0   0.00000     -0.301140E-02
     11573 MEMB     93       PMPE     H8Y      HAL2     0.900000E-01   1.00800           0   0.00000     -0.301140E-02
     11574 MEMB     93       PMPE     C39      CTL2    -0.180000       12.0110           0   0.00000     -0.301140E-02
     11575 MEMB     93       PMPE     H9X      HAL2     0.900000E-01   1.00800           0   0.00000     -0.301140E-02
     11576 MEMB     93       PMPE     H9Y      HAL2     0.900000E-01   1.00800           0   0.00000     -0.301140E-02
     11577 MEMB     93       PMPE     C310     CTL2    -0.180000       12.0110           0   0.00000     -0.301140E-02
     11578 MEMB     93       PMPE     H10X     HAL2     0.900000E-01   1.00800           0   0.00000     -0.301140E-02
     11579 MEMB     93       PMPE     H10Y     HAL2     0.900000E-01   1.00800           0   0.00000     -0.301140E-02
     11580 MEMB     93       PMPE     C311     CTL2    -0.180000       12.0110           0   0.00000     -0.301140E-02
     11581 MEMB     93       PMPE     H11X     HAL2     0.900000E-01   1.00800           0   0.00000     -0.301140E-02
     11582 MEMB     93       PMPE     H11Y     HAL2     0.900000E-01   1.00800           0   0.00000     -0.301140E-02
     11583 MEMB     93       PMPE     C312     CTL2    -0.180000       12.0110           0   0.00000     -0.301140E-02
     11584 MEMB     93       PMPE     H12X     HAL2     0.900000E-01   1.00800           0   0.00000     -0.301140E-02
     11585 MEMB     93       PMPE     H12Y     HAL2     0.900000E-01   1.00800           0   0.00000     -0.301140E-02
     11586 MEMB     93       PMPE     C313     CTL2    -0.180000       12.0110           0   0.00000     -0.301140E-02
     11587 MEMB     93       PMPE     H13X     HAL2     0.900000E-01   1.00800           0   0.00000     -0.301140E-02
     11588 MEMB     93       PMPE     H13Y     HAL2     0.900000E-01   1.00800           0   0.00000     -0.301140E-02
     11589 MEMB     93       PMPE     C314     CTL2    -0.180000       12.0110           0   0.00000     -0.301140E-02
     11590 MEMB     93       PMPE     H14X     HAL2     0.900000E-01   1.00800           0   0.00000     -0.301140E-02
     11591 MEMB     93       PMPE     H14Y     HAL2     0.900000E-01   1.00800           0   0.00000     -0.301140E-02
     11592 MEMB     93       PMPE     C315     CTL2    -0.180000       12.0110           0   0.00000     -0.301140E-02
     11593 MEMB     93       PMPE     H15X     HAL2     0.900000E-01   1.00800           0   0.00000     -0.301140E-02
     11594 MEMB     93       PMPE     H15Y     HAL2     0.900000E-01   1.00800           0   0.00000     -0.301140E-02
     11595 MEMB     93       PMPE     C316     CTL3    -0.270000       12.0110           0   0.00000     -0.301140E-02
     11596 MEMB     93       PMPE     H16X     HAL3     0.900000E-01   1.00800           0   0.00000     -0.301140E-02
     11597 MEMB     93       PMPE     H16Y     HAL3     0.900000E-01   1.00800           0   0.00000     -0.301140E-02
     11598 MEMB     93       PMPE     H16Z     HAL3     0.900000E-01   1.00800           0   0.00000     -0.301140E-02
     11599 MEMB     94       POPE     N        NH3L    -0.300000       14.0070           0   0.00000     -0.301140E-02
     11600 MEMB     94       POPE     HN1      HCL      0.330000       1.00800           0   0.00000     -0.301140E-02
     11601 MEMB     94       POPE     HN2      HCL      0.330000       1.00800           0   0.00000     -0.301140E-02
     11602 MEMB     94       POPE     HN3      HCL      0.330000       1.00800           0   0.00000     -0.301140E-02
     11603 MEMB     94       POPE     C12      CTL2     0.130000       12.0110           0   0.00000     -0.301140E-02
     11604 MEMB     94       POPE     H12A     HAL2     0.900000E-01   1.00800           0   0.00000     -0.301140E-02
     11605 MEMB     94       POPE     H12B     HAL2     0.900000E-01   1.00800           0   0.00000     -0.301140E-02
     11606 MEMB     94       POPE     C11      CTL2    -0.800000E-01   12.0110           0   0.00000     -0.301140E-02
     11607 MEMB     94       POPE     H11A     HAL2     0.900000E-01   1.00800           0   0.00000     -0.301140E-02
     11608 MEMB     94       POPE     H11B     HAL2     0.900000E-01   1.00800           0   0.00000     -0.301140E-02
     11609 MEMB     94       POPE     P        PL        1.50000       30.9740           0   0.00000     -0.301140E-02
     11610 MEMB     94       POPE     O13      O2L     -0.780000       15.9994           0   0.00000     -0.301140E-02
     11611 MEMB     94       POPE     O14      O2L     -0.780000       15.9994           0   0.00000     -0.301140E-02
     11612 MEMB     94       POPE     O11      OSLP    -0.570000       15.9994           0   0.00000     -0.301140E-02
     11613 MEMB     94       POPE     O12      OSLP    -0.570000       15.9994           0   0.00000     -0.301140E-02
     11614 MEMB     94       POPE     C1       CTL2    -0.800000E-01   12.0110           0   0.00000     -0.301140E-02
     11615 MEMB     94       POPE     HA       HAL2     0.900000E-01   1.00800           0   0.00000     -0.301140E-02
     11616 MEMB     94       POPE     HB       HAL2     0.900000E-01   1.00800           0   0.00000     -0.301140E-02
     11617 MEMB     94       POPE     C2       CTL1     0.170000       12.0110           0   0.00000     -0.301140E-02
     11618 MEMB     94       POPE     HS       HAL1     0.900000E-01   1.00800           0   0.00000     -0.301140E-02
     11619 MEMB     94       POPE     O21      OSL     -0.490000       15.9994           0   0.00000     -0.301140E-02
     11620 MEMB     94       POPE     C21      CL       0.900000       12.0110           0   0.00000     -0.301140E-02
     11621 MEMB     94       POPE     O22      OBL     -0.630000       15.9994           0   0.00000     -0.301140E-02
     11622 MEMB     94       POPE     C22      CTL2    -0.220000       12.0110           0   0.00000     -0.301140E-02
     11623 MEMB     94       POPE     H2R      HAL2     0.900000E-01   1.00800           0   0.00000     -0.301140E-02
     11624 MEMB     94       POPE     H2S      HAL2     0.900000E-01   1.00800           0   0.00000     -0.301140E-02
     11625 MEMB     94       POPE     C3       CTL2     0.800000E-01   12.0110           0   0.00000     -0.301140E-02
     11626 MEMB     94       POPE     HX       HAL2     0.900000E-01   1.00800           0   0.00000     -0.301140E-02
     11627 MEMB     94       POPE     HY       HAL2     0.900000E-01   1.00800           0   0.00000     -0.301140E-02
     11628 MEMB     94       POPE     O31      OSL     -0.490000       15.9994           0   0.00000     -0.301140E-02
     11629 MEMB     94       POPE     C31      CL       0.900000       12.0110           0   0.00000     -0.301140E-02
     11630 MEMB     94       POPE     O32      OBL     -0.630000       15.9994           0   0.00000     -0.301140E-02
     11631 MEMB     94       POPE     C32      CTL2    -0.220000       12.0110           0   0.00000     -0.301140E-02
     11632 MEMB     94       POPE     H2X      HAL2     0.900000E-01   1.00800           0   0.00000     -0.301140E-02
     11633 MEMB     94       POPE     H2Y      HAL2     0.900000E-01   1.00800           0   0.00000     -0.301140E-02
     11634 MEMB     94       POPE     C23      CTL2    -0.180000       12.0110           0   0.00000     -0.301140E-02
     11635 MEMB     94       POPE     H3R      HAL2     0.900000E-01   1.00800           0   0.00000     -0.301140E-02
     11636 MEMB     94       POPE     H3S      HAL2     0.900000E-01   1.00800           0   0.00000     -0.301140E-02
     11637 MEMB     94       POPE     C24      CTL2    -0.180000       12.0110           0   0.00000     -0.301140E-02
     11638 MEMB     94       POPE     H4R      HAL2     0.900000E-01   1.00800           0   0.00000     -0.301140E-02
     11639 MEMB     94       POPE     H4S      HAL2     0.900000E-01   1.00800           0   0.00000     -0.301140E-02
     11640 MEMB     94       POPE     C25      CTL2    -0.180000       12.0110           0   0.00000     -0.301140E-02
     11641 MEMB     94       POPE     H5R      HAL2     0.900000E-01   1.00800           0   0.00000     -0.301140E-02
     11642 MEMB     94       POPE     H5S      HAL2     0.900000E-01   1.00800           0   0.00000     -0.301140E-02
     11643 MEMB     94       POPE     C26      CTL2    -0.180000       12.0110           0   0.00000     -0.301140E-02
     11644 MEMB     94       POPE     H6R      HAL2     0.900000E-01   1.00800           0   0.00000     -0.301140E-02
     11645 MEMB     94       POPE     H6S      HAL2     0.900000E-01   1.00800           0   0.00000     -0.301140E-02
     11646 MEMB     94       POPE     C27      CTL2    -0.180000       12.0110           0   0.00000     -0.301140E-02
     11647 MEMB     94       POPE     H7R      HAL2     0.900000E-01   1.00800           0   0.00000     -0.301140E-02
     11648 MEMB     94       POPE     H7S      HAL2     0.900000E-01   1.00800           0   0.00000     -0.301140E-02
     11649 MEMB     94       POPE     C28      CTL2    -0.180000       12.0110           0   0.00000     -0.301140E-02
     11650 MEMB     94       POPE     H8R      HAL2     0.900000E-01   1.00800           0   0.00000     -0.301140E-02
     11651 MEMB     94       POPE     H8S      HAL2     0.900000E-01   1.00800           0   0.00000     -0.301140E-02
     11652 MEMB     94       POPE     C29      CEL1    -0.150000       12.0110           0   0.00000     -0.301140E-02
     11653 MEMB     94       POPE     H91      HEL1     0.150000       1.00800           0   0.00000     -0.301140E-02
     11654 MEMB     94       POPE     C210     CEL1    -0.150000       12.0110           0   0.00000     -0.301140E-02
     11655 MEMB     94       POPE     H101     HEL1     0.150000       1.00800           0   0.00000     -0.301140E-02
     11656 MEMB     94       POPE     C211     CTL2    -0.180000       12.0110           0   0.00000     -0.301140E-02
     11657 MEMB     94       POPE     H11R     HAL2     0.900000E-01   1.00800           0   0.00000     -0.301140E-02
     11658 MEMB     94       POPE     H11S     HAL2     0.900000E-01   1.00800           0   0.00000     -0.301140E-02
     11659 MEMB     94       POPE     C212     CTL2    -0.180000       12.0110           0   0.00000     -0.301140E-02
     11660 MEMB     94       POPE     H12R     HAL2     0.900000E-01   1.00800           0   0.00000     -0.301140E-02
     11661 MEMB     94       POPE     H12S     HAL2     0.900000E-01   1.00800           0   0.00000     -0.301140E-02
     11662 MEMB     94       POPE     C213     CTL2    -0.180000       12.0110           0   0.00000     -0.301140E-02
     11663 MEMB     94       POPE     H13R     HAL2     0.900000E-01   1.00800           0   0.00000     -0.301140E-02
     11664 MEMB     94       POPE     H13S     HAL2     0.900000E-01   1.00800           0   0.00000     -0.301140E-02
     11665 MEMB     94       POPE     C214     CTL2    -0.180000       12.0110           0   0.00000     -0.301140E-02
     11666 MEMB     94       POPE     H14R     HAL2     0.900000E-01   1.00800           0   0.00000     -0.301140E-02
     11667 MEMB     94       POPE     H14S     HAL2     0.900000E-01   1.00800           0   0.00000     -0.301140E-02
     11668 MEMB     94       POPE     C215     CTL2    -0.180000       12.0110           0   0.00000     -0.301140E-02
     11669 MEMB     94       POPE     H15R     HAL2     0.900000E-01   1.00800           0   0.00000     -0.301140E-02
     11670 MEMB     94       POPE     H15S     HAL2     0.900000E-01   1.00800           0   0.00000     -0.301140E-02
     11671 MEMB     94       POPE     C216     CTL2    -0.180000       12.0110           0   0.00000     -0.301140E-02
     11672 MEMB     94       POPE     H16R     HAL2     0.900000E-01   1.00800           0   0.00000     -0.301140E-02
     11673 MEMB     94       POPE     H16S     HAL2     0.900000E-01   1.00800           0   0.00000     -0.301140E-02
     11674 MEMB     94       POPE     C217     CTL2    -0.180000       12.0110           0   0.00000     -0.301140E-02
     11675 MEMB     94       POPE     H17R     HAL2     0.900000E-01   1.00800           0   0.00000     -0.301140E-02
     11676 MEMB     94       POPE     H17S     HAL2     0.900000E-01   1.00800           0   0.00000     -0.301140E-02
     11677 MEMB     94       POPE     C218     CTL3    -0.270000       12.0110           0   0.00000     -0.301140E-02
     11678 MEMB     94       POPE     H18R     HAL3     0.900000E-01   1.00800           0   0.00000     -0.301140E-02
     11679 MEMB     94       POPE     H18S     HAL3     0.900000E-01   1.00800           0   0.00000     -0.301140E-02
     11680 MEMB     94       POPE     H18T     HAL3     0.900000E-01   1.00800           0   0.00000     -0.301140E-02
     11681 MEMB     94       POPE     C33      CTL2    -0.180000       12.0110           0   0.00000     -0.301140E-02
     11682 MEMB     94       POPE     H3X      HAL2     0.900000E-01   1.00800           0   0.00000     -0.301140E-02
     11683 MEMB     94       POPE     H3Y      HAL2     0.900000E-01   1.00800           0   0.00000     -0.301140E-02
     11684 MEMB     94       POPE     C34      CTL2    -0.180000       12.0110           0   0.00000     -0.301140E-02
     11685 MEMB     94       POPE     H4X      HAL2     0.900000E-01   1.00800           0   0.00000     -0.301140E-02
     11686 MEMB     94       POPE     H4Y      HAL2     0.900000E-01   1.00800           0   0.00000     -0.301140E-02
     11687 MEMB     94       POPE     C35      CTL2    -0.180000       12.0110           0   0.00000     -0.301140E-02
     11688 MEMB     94       POPE     H5X      HAL2     0.900000E-01   1.00800           0   0.00000     -0.301140E-02
     11689 MEMB     94       POPE     H5Y      HAL2     0.900000E-01   1.00800           0   0.00000     -0.301140E-02
     11690 MEMB     94       POPE     C36      CTL2    -0.180000       12.0110           0   0.00000     -0.301140E-02
     11691 MEMB     94       POPE     H6X      HAL2     0.900000E-01   1.00800           0   0.00000     -0.301140E-02
     11692 MEMB     94       POPE     H6Y      HAL2     0.900000E-01   1.00800           0   0.00000     -0.301140E-02
     11693 MEMB     94       POPE     C37      CTL2    -0.180000       12.0110           0   0.00000     -0.301140E-02
     11694 MEMB     94       POPE     H7X      HAL2     0.900000E-01   1.00800           0   0.00000     -0.301140E-02
     11695 MEMB     94       POPE     H7Y      HAL2     0.900000E-01   1.00800           0   0.00000     -0.301140E-02
     11696 MEMB     94       POPE     C38      CTL2    -0.180000       12.0110           0   0.00000     -0.301140E-02
     11697 MEMB     94       POPE     H8X      HAL2     0.900000E-01   1.00800           0   0.00000     -0.301140E-02
     11698 MEMB     94       POPE     H8Y      HAL2     0.900000E-01   1.00800           0   0.00000     -0.301140E-02
     11699 MEMB     94       POPE     C39      CTL2    -0.180000       12.0110           0   0.00000     -0.301140E-02
     11700 MEMB     94       POPE     H9X      HAL2     0.900000E-01   1.00800           0   0.00000     -0.301140E-02
     11701 MEMB     94       POPE     H9Y      HAL2     0.900000E-01   1.00800           0   0.00000     -0.301140E-02
     11702 MEMB     94       POPE     C310     CTL2    -0.180000       12.0110           0   0.00000     -0.301140E-02
     11703 MEMB     94       POPE     H10X     HAL2     0.900000E-01   1.00800           0   0.00000     -0.301140E-02
     11704 MEMB     94       POPE     H10Y     HAL2     0.900000E-01   1.00800           0   0.00000     -0.301140E-02
     11705 MEMB     94       POPE     C311     CTL2    -0.180000       12.0110           0   0.00000     -0.301140E-02
     11706 MEMB     94       POPE     H11X     HAL2     0.900000E-01   1.00800           0   0.00000     -0.301140E-02
     11707 MEMB     94       POPE     H11Y     HAL2     0.900000E-01   1.00800           0   0.00000     -0.301140E-02
     11708 MEMB     94       POPE     C312     CTL2    -0.180000       12.0110           0   0.00000     -0.301140E-02
     11709 MEMB     94       POPE     H12X     HAL2     0.900000E-01   1.00800           0   0.00000     -0.301140E-02
     11710 MEMB     94       POPE     H12Y     HAL2     0.900000E-01   1.00800           0   0.00000     -0.301140E-02
     11711 MEMB     94       POPE     C313     CTL2    -0.180000       12.0110           0   0.00000     -0.301140E-02
     11712 MEMB     94       POPE     H13X     HAL2     0.900000E-01   1.00800           0   0.00000     -0.301140E-02
     11713 MEMB     94       POPE     H13Y     HAL2     0.900000E-01   1.00800           0   0.00000     -0.301140E-02
     11714 MEMB     94       POPE     C314     CTL2    -0.180000       12.0110           0   0.00000     -0.301140E-02
     11715 MEMB     94       POPE     H14X     HAL2     0.900000E-01   1.00800           0   0.00000     -0.301140E-02
     11716 MEMB     94       POPE     H14Y     HAL2     0.900000E-01   1.00800           0   0.00000     -0.301140E-02
     11717 MEMB     94       POPE     C315     CTL2    -0.180000       12.0110           0   0.00000     -0.301140E-02
     11718 MEMB     94       POPE     H15X     HAL2     0.900000E-01   1.00800           0   0.00000     -0.301140E-02
     11719 MEMB     94       POPE     H15Y     HAL2     0.900000E-01   1.00800           0   0.00000     -0.301140E-02
     11720 MEMB     94       POPE     C316     CTL3    -0.270000       12.0110           0   0.00000     -0.301140E-02
     11721 MEMB     94       POPE     H16X     HAL3     0.900000E-01   1.00800           0   0.00000     -0.301140E-02
     11722 MEMB     94       POPE     H16Y     HAL3     0.900000E-01   1.00800           0   0.00000     -0.301140E-02
     11723 MEMB     94       POPE     H16Z     HAL3     0.900000E-01   1.00800           0   0.00000     -0.301140E-02
     11724 MEMB     95       PMPE     N        NH3L    -0.300000       14.0070           0   0.00000     -0.301140E-02
     11725 MEMB     95       PMPE     HN1      HCL      0.330000       1.00800           0   0.00000     -0.301140E-02
     11726 MEMB     95       PMPE     HN2      HCL      0.330000       1.00800           0   0.00000     -0.301140E-02
     11727 MEMB     95       PMPE     HN3      HCL      0.330000       1.00800           0   0.00000     -0.301140E-02
     11728 MEMB     95       PMPE     C12      CTL2     0.130000       12.0110           0   0.00000     -0.301140E-02
     11729 MEMB     95       PMPE     H12A     HAL2     0.900000E-01   1.00800           0   0.00000     -0.301140E-02
     11730 MEMB     95       PMPE     H12B     HAL2     0.900000E-01   1.00800           0   0.00000     -0.301140E-02
     11731 MEMB     95       PMPE     C11      CTL2    -0.800000E-01   12.0110           0   0.00000     -0.301140E-02
     11732 MEMB     95       PMPE     H11A     HAL2     0.900000E-01   1.00800           0   0.00000     -0.301140E-02
     11733 MEMB     95       PMPE     H11B     HAL2     0.900000E-01   1.00800           0   0.00000     -0.301140E-02
     11734 MEMB     95       PMPE     P        PL        1.50000       30.9740           0   0.00000     -0.301140E-02
     11735 MEMB     95       PMPE     O13      O2L     -0.780000       15.9994           0   0.00000     -0.301140E-02
     11736 MEMB     95       PMPE     O14      O2L     -0.780000       15.9994           0   0.00000     -0.301140E-02
     11737 MEMB     95       PMPE     O11      OSLP    -0.570000       15.9994           0   0.00000     -0.301140E-02
     11738 MEMB     95       PMPE     O12      OSLP    -0.570000       15.9994           0   0.00000     -0.301140E-02
     11739 MEMB     95       PMPE     C1       CTL2    -0.800000E-01   12.0110           0   0.00000     -0.301140E-02
     11740 MEMB     95       PMPE     HA       HAL2     0.900000E-01   1.00800           0   0.00000     -0.301140E-02
     11741 MEMB     95       PMPE     HB       HAL2     0.900000E-01   1.00800           0   0.00000     -0.301140E-02
     11742 MEMB     95       PMPE     C2       CTL1     0.170000       12.0110           0   0.00000     -0.301140E-02
     11743 MEMB     95       PMPE     HS       HAL1     0.900000E-01   1.00800           0   0.00000     -0.301140E-02
     11744 MEMB     95       PMPE     O21      OSL     -0.490000       15.9994           0   0.00000     -0.301140E-02
     11745 MEMB     95       PMPE     C21      CL       0.900000       12.0110           0   0.00000     -0.301140E-02
     11746 MEMB     95       PMPE     O22      OBL     -0.630000       15.9994           0   0.00000     -0.301140E-02
     11747 MEMB     95       PMPE     C22      CTL2    -0.220000       12.0110           0   0.00000     -0.301140E-02
     11748 MEMB     95       PMPE     H2R      HAL2     0.900000E-01   1.00800           0   0.00000     -0.301140E-02
     11749 MEMB     95       PMPE     H2S      HAL2     0.900000E-01   1.00800           0   0.00000     -0.301140E-02
     11750 MEMB     95       PMPE     C3       CTL2     0.800000E-01   12.0110           0   0.00000     -0.301140E-02
     11751 MEMB     95       PMPE     HX       HAL2     0.900000E-01   1.00800           0   0.00000     -0.301140E-02
     11752 MEMB     95       PMPE     HY       HAL2     0.900000E-01   1.00800           0   0.00000     -0.301140E-02
     11753 MEMB     95       PMPE     O31      OSL     -0.490000       15.9994           0   0.00000     -0.301140E-02
     11754 MEMB     95       PMPE     C31      CL       0.900000       12.0110           0   0.00000     -0.301140E-02
     11755 MEMB     95       PMPE     O32      OBL     -0.630000       15.9994           0   0.00000     -0.301140E-02
     11756 MEMB     95       PMPE     C32      CTL2    -0.220000       12.0110           0   0.00000     -0.301140E-02
     11757 MEMB     95       PMPE     H2X      HAL2     0.900000E-01   1.00800           0   0.00000     -0.301140E-02
     11758 MEMB     95       PMPE     H2Y      HAL2     0.900000E-01   1.00800           0   0.00000     -0.301140E-02
     11759 MEMB     95       PMPE     C23      CTL2    -0.180000       12.0110           0   0.00000     -0.301140E-02
     11760 MEMB     95       PMPE     H3R      HAL2     0.900000E-01   1.00800           0   0.00000     -0.301140E-02
     11761 MEMB     95       PMPE     H3S      HAL2     0.900000E-01   1.00800           0   0.00000     -0.301140E-02
     11762 MEMB     95       PMPE     C24      CTL2    -0.180000       12.0110           0   0.00000     -0.301140E-02
     11763 MEMB     95       PMPE     H4R      HAL2     0.900000E-01   1.00800           0   0.00000     -0.301140E-02
     11764 MEMB     95       PMPE     H4S      HAL2     0.900000E-01   1.00800           0   0.00000     -0.301140E-02
     11765 MEMB     95       PMPE     C25      CTL2    -0.180000       12.0110           0   0.00000     -0.301140E-02
     11766 MEMB     95       PMPE     H5R      HAL2     0.900000E-01   1.00800           0   0.00000     -0.301140E-02
     11767 MEMB     95       PMPE     H5S      HAL2     0.900000E-01   1.00800           0   0.00000     -0.301140E-02
     11768 MEMB     95       PMPE     C26      CTL2    -0.180000       12.0110           0   0.00000     -0.301140E-02
     11769 MEMB     95       PMPE     H6R      HAL2     0.900000E-01   1.00800           0   0.00000     -0.301140E-02
     11770 MEMB     95       PMPE     H6S      HAL2     0.900000E-01   1.00800           0   0.00000     -0.301140E-02
     11771 MEMB     95       PMPE     C27      CTL2    -0.180000       12.0110           0   0.00000     -0.301140E-02
     11772 MEMB     95       PMPE     H7R      HAL2     0.900000E-01   1.00800           0   0.00000     -0.301140E-02
     11773 MEMB     95       PMPE     H7S      HAL2     0.900000E-01   1.00800           0   0.00000     -0.301140E-02
     11774 MEMB     95       PMPE     C28      CTL2    -0.180000       12.0110           0   0.00000     -0.301140E-02
     11775 MEMB     95       PMPE     H8R      HAL2     0.900000E-01   1.00800           0   0.00000     -0.301140E-02
     11776 MEMB     95       PMPE     H8S      HAL2     0.900000E-01   1.00800           0   0.00000     -0.301140E-02
     11777 MEMB     95       PMPE     C29      CG3RC1  -0.900000E-01   12.0110           0   0.00000     -0.301140E-02
     11778 MEMB     95       PMPE     H9R      HGA1     0.900000E-01   1.00800           0   0.00000     -0.301140E-02
     11779 MEMB     95       PMPE     C217     CG3C31  -0.180000       12.0110           0   0.00000     -0.301140E-02
     11780 MEMB     95       PMPE     H17R     HGA2     0.900000E-01   1.00800           0   0.00000     -0.301140E-02
     11781 MEMB     95       PMPE     H17S     HGA2     0.900000E-01   1.00800           0   0.00000     -0.301140E-02
     11782 MEMB     95       PMPE     C210     CG3RC1  -0.900000E-01   12.0110           0   0.00000     -0.301140E-02
     11783 MEMB     95       PMPE     H10R     HGA1     0.900000E-01   1.00800           0   0.00000     -0.301140E-02
     11784 MEMB     95       PMPE     C211     CTL2    -0.180000       12.0110           0   0.00000     -0.301140E-02
     11785 MEMB     95       PMPE     H11R     HAL2     0.900000E-01   1.00800           0   0.00000     -0.301140E-02
     11786 MEMB     95       PMPE     H11S     HAL2     0.900000E-01   1.00800           0   0.00000     -0.301140E-02
     11787 MEMB     95       PMPE     C212     CTL2    -0.180000       12.0110           0   0.00000     -0.301140E-02
     11788 MEMB     95       PMPE     H12R     HAL2     0.900000E-01   1.00800           0   0.00000     -0.301140E-02
     11789 MEMB     95       PMPE     H12S     HAL2     0.900000E-01   1.00800           0   0.00000     -0.301140E-02
     11790 MEMB     95       PMPE     C213     CTL2    -0.180000       12.0110           0   0.00000     -0.301140E-02
     11791 MEMB     95       PMPE     H13R     HAL2     0.900000E-01   1.00800           0   0.00000     -0.301140E-02
     11792 MEMB     95       PMPE     H13S     HAL2     0.900000E-01   1.00800           0   0.00000     -0.301140E-02
     11793 MEMB     95       PMPE     C214     CTL2    -0.180000       12.0110           0   0.00000     -0.301140E-02
     11794 MEMB     95       PMPE     H14R     HAL2     0.900000E-01   1.00800           0   0.00000     -0.301140E-02
     11795 MEMB     95       PMPE     H14S     HAL2     0.900000E-01   1.00800           0   0.00000     -0.301140E-02
     11796 MEMB     95       PMPE     C215     CTL2    -0.180000       12.0110           0   0.00000     -0.301140E-02
     11797 MEMB     95       PMPE     H15R     HAL2     0.900000E-01   1.00800           0   0.00000     -0.301140E-02
     11798 MEMB     95       PMPE     H15S     HAL2     0.900000E-01   1.00800           0   0.00000     -0.301140E-02
     11799 MEMB     95       PMPE     C216     CTL3    -0.270000       12.0110           0   0.00000     -0.301140E-02
     11800 MEMB     95       PMPE     H16R     HAL3     0.900000E-01   1.00800           0   0.00000     -0.301140E-02
     11801 MEMB     95       PMPE     H16S     HAL3     0.900000E-01   1.00800           0   0.00000     -0.301140E-02
     11802 MEMB     95       PMPE     H16T     HAL3     0.900000E-01   1.00800           0   0.00000     -0.301140E-02
     11803 MEMB     95       PMPE     C33      CTL2    -0.180000       12.0110           0   0.00000     -0.301140E-02
     11804 MEMB     95       PMPE     H3X      HAL2     0.900000E-01   1.00800           0   0.00000     -0.301140E-02
     11805 MEMB     95       PMPE     H3Y      HAL2     0.900000E-01   1.00800           0   0.00000     -0.301140E-02
     11806 MEMB     95       PMPE     C34      CTL2    -0.180000       12.0110           0   0.00000     -0.301140E-02
     11807 MEMB     95       PMPE     H4X      HAL2     0.900000E-01   1.00800           0   0.00000     -0.301140E-02
     11808 MEMB     95       PMPE     H4Y      HAL2     0.900000E-01   1.00800           0   0.00000     -0.301140E-02
     11809 MEMB     95       PMPE     C35      CTL2    -0.180000       12.0110           0   0.00000     -0.301140E-02
     11810 MEMB     95       PMPE     H5X      HAL2     0.900000E-01   1.00800           0   0.00000     -0.301140E-02
     11811 MEMB     95       PMPE     H5Y      HAL2     0.900000E-01   1.00800           0   0.00000     -0.301140E-02
     11812 MEMB     95       PMPE     C36      CTL2    -0.180000       12.0110           0   0.00000     -0.301140E-02
     11813 MEMB     95       PMPE     H6X      HAL2     0.900000E-01   1.00800           0   0.00000     -0.301140E-02
     11814 MEMB     95       PMPE     H6Y      HAL2     0.900000E-01   1.00800           0   0.00000     -0.301140E-02
     11815 MEMB     95       PMPE     C37      CTL2    -0.180000       12.0110           0   0.00000     -0.301140E-02
     11816 MEMB     95       PMPE     H7X      HAL2     0.900000E-01   1.00800           0   0.00000     -0.301140E-02
     11817 MEMB     95       PMPE     H7Y      HAL2     0.900000E-01   1.00800           0   0.00000     -0.301140E-02
     11818 MEMB     95       PMPE     C38      CTL2    -0.180000       12.0110           0   0.00000     -0.301140E-02
     11819 MEMB     95       PMPE     H8X      HAL2     0.900000E-01   1.00800           0   0.00000     -0.301140E-02
     11820 MEMB     95       PMPE     H8Y      HAL2     0.900000E-01   1.00800           0   0.00000     -0.301140E-02
     11821 MEMB     95       PMPE     C39      CTL2    -0.180000       12.0110           0   0.00000     -0.301140E-02
     11822 MEMB     95       PMPE     H9X      HAL2     0.900000E-01   1.00800           0   0.00000     -0.301140E-02
     11823 MEMB     95       PMPE     H9Y      HAL2     0.900000E-01   1.00800           0   0.00000     -0.301140E-02
     11824 MEMB     95       PMPE     C310     CTL2    -0.180000       12.0110           0   0.00000     -0.301140E-02
     11825 MEMB     95       PMPE     H10X     HAL2     0.900000E-01   1.00800           0   0.00000     -0.301140E-02
     11826 MEMB     95       PMPE     H10Y     HAL2     0.900000E-01   1.00800           0   0.00000     -0.301140E-02
     11827 MEMB     95       PMPE     C311     CTL2    -0.180000       12.0110           0   0.00000     -0.301140E-02
     11828 MEMB     95       PMPE     H11X     HAL2     0.900000E-01   1.00800           0   0.00000     -0.301140E-02
     11829 MEMB     95       PMPE     H11Y     HAL2     0.900000E-01   1.00800           0   0.00000     -0.301140E-02
     11830 MEMB     95       PMPE     C312     CTL2    -0.180000       12.0110           0   0.00000     -0.301140E-02
     11831 MEMB     95       PMPE     H12X     HAL2     0.900000E-01   1.00800           0   0.00000     -0.301140E-02
     11832 MEMB     95       PMPE     H12Y     HAL2     0.900000E-01   1.00800           0   0.00000     -0.301140E-02
     11833 MEMB     95       PMPE     C313     CTL2    -0.180000       12.0110           0   0.00000     -0.301140E-02
     11834 MEMB     95       PMPE     H13X     HAL2     0.900000E-01   1.00800           0   0.00000     -0.301140E-02
     11835 MEMB     95       PMPE     H13Y     HAL2     0.900000E-01   1.00800           0   0.00000     -0.301140E-02
     11836 MEMB     95       PMPE     C314     CTL2    -0.180000       12.0110           0   0.00000     -0.301140E-02
     11837 MEMB     95       PMPE     H14X     HAL2     0.900000E-01   1.00800           0   0.00000     -0.301140E-02
     11838 MEMB     95       PMPE     H14Y     HAL2     0.900000E-01   1.00800           0   0.00000     -0.301140E-02
     11839 MEMB     95       PMPE     C315     CTL2    -0.180000       12.0110           0   0.00000     -0.301140E-02
     11840 MEMB     95       PMPE     H15X     HAL2     0.900000E-01   1.00800           0   0.00000     -0.301140E-02
     11841 MEMB     95       PMPE     H15Y     HAL2     0.900000E-01   1.00800           0   0.00000     -0.301140E-02
     11842 MEMB     95       PMPE     C316     CTL3    -0.270000       12.0110           0   0.00000     -0.301140E-02
     11843 MEMB     95       PMPE     H16X     HAL3     0.900000E-01   1.00800           0   0.00000     -0.301140E-02
     11844 MEMB     95       PMPE     H16Y     HAL3     0.900000E-01   1.00800           0   0.00000     -0.301140E-02
     11845 MEMB     95       PMPE     H16Z     HAL3     0.900000E-01   1.00800           0   0.00000     -0.301140E-02
     11846 MEMB     96       OYPE     N        NH3L    -0.300000       14.0070           0   0.00000     -0.301140E-02
     11847 MEMB     96       OYPE     HN1      HCL      0.330000       1.00800           0   0.00000     -0.301140E-02
     11848 MEMB     96       OYPE     HN2      HCL      0.330000       1.00800           0   0.00000     -0.301140E-02
     11849 MEMB     96       OYPE     HN3      HCL      0.330000       1.00800           0   0.00000     -0.301140E-02
     11850 MEMB     96       OYPE     C12      CTL2     0.130000       12.0110           0   0.00000     -0.301140E-02
     11851 MEMB     96       OYPE     H12A     HAL2     0.900000E-01   1.00800           0   0.00000     -0.301140E-02
     11852 MEMB     96       OYPE     H12B     HAL2     0.900000E-01   1.00800           0   0.00000     -0.301140E-02
     11853 MEMB     96       OYPE     C11      CTL2    -0.800000E-01   12.0110           0   0.00000     -0.301140E-02
     11854 MEMB     96       OYPE     H11A     HAL2     0.900000E-01   1.00800           0   0.00000     -0.301140E-02
     11855 MEMB     96       OYPE     H11B     HAL2     0.900000E-01   1.00800           0   0.00000     -0.301140E-02
     11856 MEMB     96       OYPE     P        PL        1.50000       30.9740           0   0.00000     -0.301140E-02
     11857 MEMB     96       OYPE     O13      O2L     -0.780000       15.9994           0   0.00000     -0.301140E-02
     11858 MEMB     96       OYPE     O14      O2L     -0.780000       15.9994           0   0.00000     -0.301140E-02
     11859 MEMB     96       OYPE     O11      OSLP    -0.570000       15.9994           0   0.00000     -0.301140E-02
     11860 MEMB     96       OYPE     O12      OSLP    -0.570000       15.9994           0   0.00000     -0.301140E-02
     11861 MEMB     96       OYPE     C1       CTL2    -0.800000E-01   12.0110           0   0.00000     -0.301140E-02
     11862 MEMB     96       OYPE     HA       HAL2     0.900000E-01   1.00800           0   0.00000     -0.301140E-02
     11863 MEMB     96       OYPE     HB       HAL2     0.900000E-01   1.00800           0   0.00000     -0.301140E-02
     11864 MEMB     96       OYPE     C2       CTL1     0.170000       12.0110           0   0.00000     -0.301140E-02
     11865 MEMB     96       OYPE     HS       HAL1     0.900000E-01   1.00800           0   0.00000     -0.301140E-02
     11866 MEMB     96       OYPE     O21      OSL     -0.490000       15.9994           0   0.00000     -0.301140E-02
     11867 MEMB     96       OYPE     C21      CL       0.900000       12.0110           0   0.00000     -0.301140E-02
     11868 MEMB     96       OYPE     O22      OBL     -0.630000       15.9994           0   0.00000     -0.301140E-02
     11869 MEMB     96       OYPE     C22      CTL2    -0.220000       12.0110           0   0.00000     -0.301140E-02
     11870 MEMB     96       OYPE     H2R      HAL2     0.900000E-01   1.00800           0   0.00000     -0.301140E-02
     11871 MEMB     96       OYPE     H2S      HAL2     0.900000E-01   1.00800           0   0.00000     -0.301140E-02
     11872 MEMB     96       OYPE     C3       CTL2     0.800000E-01   12.0110           0   0.00000     -0.301140E-02
     11873 MEMB     96       OYPE     HX       HAL2     0.900000E-01   1.00800           0   0.00000     -0.301140E-02
     11874 MEMB     96       OYPE     HY       HAL2     0.900000E-01   1.00800           0   0.00000     -0.301140E-02
     11875 MEMB     96       OYPE     O31      OSL     -0.490000       15.9994           0   0.00000     -0.301140E-02
     11876 MEMB     96       OYPE     C31      CL       0.900000       12.0110           0   0.00000     -0.301140E-02
     11877 MEMB     96       OYPE     O32      OBL     -0.630000       15.9994           0   0.00000     -0.301140E-02
     11878 MEMB     96       OYPE     C32      CTL2    -0.220000       12.0110           0   0.00000     -0.301140E-02
     11879 MEMB     96       OYPE     H2X      HAL2     0.900000E-01   1.00800           0   0.00000     -0.301140E-02
     11880 MEMB     96       OYPE     H2Y      HAL2     0.900000E-01   1.00800           0   0.00000     -0.301140E-02
     11881 MEMB     96       OYPE     C23      CTL2    -0.180000       12.0110           0   0.00000     -0.301140E-02
     11882 MEMB     96       OYPE     H3R      HAL2     0.900000E-01   1.00800           0   0.00000     -0.301140E-02
     11883 MEMB     96       OYPE     H3S      HAL2     0.900000E-01   1.00800           0   0.00000     -0.301140E-02
     11884 MEMB     96       OYPE     C24      CTL2    -0.180000       12.0110           0   0.00000     -0.301140E-02
     11885 MEMB     96       OYPE     H4R      HAL2     0.900000E-01   1.00800           0   0.00000     -0.301140E-02
     11886 MEMB     96       OYPE     H4S      HAL2     0.900000E-01   1.00800           0   0.00000     -0.301140E-02
     11887 MEMB     96       OYPE     C25      CTL2    -0.180000       12.0110           0   0.00000     -0.301140E-02
     11888 MEMB     96       OYPE     H5R      HAL2     0.900000E-01   1.00800           0   0.00000     -0.301140E-02
     11889 MEMB     96       OYPE     H5S      HAL2     0.900000E-01   1.00800           0   0.00000     -0.301140E-02
     11890 MEMB     96       OYPE     C26      CTL2    -0.180000       12.0110           0   0.00000     -0.301140E-02
     11891 MEMB     96       OYPE     H6R      HAL2     0.900000E-01   1.00800           0   0.00000     -0.301140E-02
     11892 MEMB     96       OYPE     H6S      HAL2     0.900000E-01   1.00800           0   0.00000     -0.301140E-02
     11893 MEMB     96       OYPE     C27      CTL2    -0.180000       12.0110           0   0.00000     -0.301140E-02
     11894 MEMB     96       OYPE     H7R      HAL2     0.900000E-01   1.00800           0   0.00000     -0.301140E-02
     11895 MEMB     96       OYPE     H7S      HAL2     0.900000E-01   1.00800           0   0.00000     -0.301140E-02
     11896 MEMB     96       OYPE     C28      CTL2    -0.180000       12.0110           0   0.00000     -0.301140E-02
     11897 MEMB     96       OYPE     H8R      HAL2     0.900000E-01   1.00800           0   0.00000     -0.301140E-02
     11898 MEMB     96       OYPE     H8S      HAL2     0.900000E-01   1.00800           0   0.00000     -0.301140E-02
     11899 MEMB     96       OYPE     C29      CEL1    -0.150000       12.0110           0   0.00000     -0.301140E-02
     11900 MEMB     96       OYPE     H9R      HEL1     0.150000       1.00800           0   0.00000     -0.301140E-02
     11901 MEMB     96       OYPE     C210     CEL1    -0.150000       12.0110           0   0.00000     -0.301140E-02
     11902 MEMB     96       OYPE     H10R     HEL1     0.150000       1.00800           0   0.00000     -0.301140E-02
     11903 MEMB     96       OYPE     C211     CTL2    -0.180000       12.0110           0   0.00000     -0.301140E-02
     11904 MEMB     96       OYPE     H11R     HAL2     0.900000E-01   1.00800           0   0.00000     -0.301140E-02
     11905 MEMB     96       OYPE     H11S     HAL2     0.900000E-01   1.00800           0   0.00000     -0.301140E-02
     11906 MEMB     96       OYPE     C212     CTL2    -0.180000       12.0110           0   0.00000     -0.301140E-02
     11907 MEMB     96       OYPE     H12R     HAL2     0.900000E-01   1.00800           0   0.00000     -0.301140E-02
     11908 MEMB     96       OYPE     H12S     HAL2     0.900000E-01   1.00800           0   0.00000     -0.301140E-02
     11909 MEMB     96       OYPE     C213     CTL2    -0.180000       12.0110           0   0.00000     -0.301140E-02
     11910 MEMB     96       OYPE     H13R     HAL2     0.900000E-01   1.00800           0   0.00000     -0.301140E-02
     11911 MEMB     96       OYPE     H13S     HAL2     0.900000E-01   1.00800           0   0.00000     -0.301140E-02
     11912 MEMB     96       OYPE     C214     CTL2    -0.180000       12.0110           0   0.00000     -0.301140E-02
     11913 MEMB     96       OYPE     H14R     HAL2     0.900000E-01   1.00800           0   0.00000     -0.301140E-02
     11914 MEMB     96       OYPE     H14S     HAL2     0.900000E-01   1.00800           0   0.00000     -0.301140E-02
     11915 MEMB     96       OYPE     C215     CTL2    -0.180000       12.0110           0   0.00000     -0.301140E-02
     11916 MEMB     96       OYPE     H15R     HAL2     0.900000E-01   1.00800           0   0.00000     -0.301140E-02
     11917 MEMB     96       OYPE     H15S     HAL2     0.900000E-01   1.00800           0   0.00000     -0.301140E-02
     11918 MEMB     96       OYPE     C216     CTL3    -0.270000       12.0110           0   0.00000     -0.301140E-02
     11919 MEMB     96       OYPE     H16R     HAL3     0.900000E-01   1.00800           0   0.00000     -0.301140E-02
     11920 MEMB     96       OYPE     H16S     HAL3     0.900000E-01   1.00800           0   0.00000     -0.301140E-02
     11921 MEMB     96       OYPE     H16T     HAL3     0.900000E-01   1.00800           0   0.00000     -0.301140E-02
     11922 MEMB     96       OYPE     C33      CTL2    -0.180000       12.0110           0   0.00000     -0.301140E-02
     11923 MEMB     96       OYPE     H3X      HAL2     0.900000E-01   1.00800           0   0.00000     -0.301140E-02
     11924 MEMB     96       OYPE     H3Y      HAL2     0.900000E-01   1.00800           0   0.00000     -0.301140E-02
     11925 MEMB     96       OYPE     C34      CTL2    -0.180000       12.0110           0   0.00000     -0.301140E-02
     11926 MEMB     96       OYPE     H4X      HAL2     0.900000E-01   1.00800           0   0.00000     -0.301140E-02
     11927 MEMB     96       OYPE     H4Y      HAL2     0.900000E-01   1.00800           0   0.00000     -0.301140E-02
     11928 MEMB     96       OYPE     C35      CTL2    -0.180000       12.0110           0   0.00000     -0.301140E-02
     11929 MEMB     96       OYPE     H5X      HAL2     0.900000E-01   1.00800           0   0.00000     -0.301140E-02
     11930 MEMB     96       OYPE     H5Y      HAL2     0.900000E-01   1.00800           0   0.00000     -0.301140E-02
     11931 MEMB     96       OYPE     C36      CTL2    -0.180000       12.0110           0   0.00000     -0.301140E-02
     11932 MEMB     96       OYPE     H6X      HAL2     0.900000E-01   1.00800           0   0.00000     -0.301140E-02
     11933 MEMB     96       OYPE     H6Y      HAL2     0.900000E-01   1.00800           0   0.00000     -0.301140E-02
     11934 MEMB     96       OYPE     C37      CTL2    -0.180000       12.0110           0   0.00000     -0.301140E-02
     11935 MEMB     96       OYPE     H7X      HAL2     0.900000E-01   1.00800           0   0.00000     -0.301140E-02
     11936 MEMB     96       OYPE     H7Y      HAL2     0.900000E-01   1.00800           0   0.00000     -0.301140E-02
     11937 MEMB     96       OYPE     C38      CTL2    -0.180000       12.0110           0   0.00000     -0.301140E-02
     11938 MEMB     96       OYPE     H8X      HAL2     0.900000E-01   1.00800           0   0.00000     -0.301140E-02
     11939 MEMB     96       OYPE     H8Y      HAL2     0.900000E-01   1.00800           0   0.00000     -0.301140E-02
     11940 MEMB     96       OYPE     C39      CEL1    -0.150000       12.0110           0   0.00000     -0.301140E-02
     11941 MEMB     96       OYPE     H9X      HEL1     0.150000       1.00800           0   0.00000     -0.301140E-02
     11942 MEMB     96       OYPE     C310     CEL1    -0.150000       12.0110           0   0.00000     -0.301140E-02
     11943 MEMB     96       OYPE     H10X     HEL1     0.150000       1.00800           0   0.00000     -0.301140E-02
     11944 MEMB     96       OYPE     C311     CTL2    -0.180000       12.0110           0   0.00000     -0.301140E-02
     11945 MEMB     96       OYPE     H11X     HAL2     0.900000E-01   1.00800           0   0.00000     -0.301140E-02
     11946 MEMB     96       OYPE     H11Y     HAL2     0.900000E-01   1.00800           0   0.00000     -0.301140E-02
     11947 MEMB     96       OYPE     C312     CTL2    -0.180000       12.0110           0   0.00000     -0.301140E-02
     11948 MEMB     96       OYPE     H12X     HAL2     0.900000E-01   1.00800           0   0.00000     -0.301140E-02
     11949 MEMB     96       OYPE     H12Y     HAL2     0.900000E-01   1.00800           0   0.00000     -0.301140E-02
     11950 MEMB     96       OYPE     C313     CTL2    -0.180000       12.0110           0   0.00000     -0.301140E-02
     11951 MEMB     96       OYPE     H13X     HAL2     0.900000E-01   1.00800           0   0.00000     -0.301140E-02
     11952 MEMB     96       OYPE     H13Y     HAL2     0.900000E-01   1.00800           0   0.00000     -0.301140E-02
     11953 MEMB     96       OYPE     C314     CTL2    -0.180000       12.0110           0   0.00000     -0.301140E-02
     11954 MEMB     96       OYPE     H14X     HAL2     0.900000E-01   1.00800           0   0.00000     -0.301140E-02
     11955 MEMB     96       OYPE     H14Y     HAL2     0.900000E-01   1.00800           0   0.00000     -0.301140E-02
     11956 MEMB     96       OYPE     C315     CTL2    -0.180000       12.0110           0   0.00000     -0.301140E-02
     11957 MEMB     96       OYPE     H15X     HAL2     0.900000E-01   1.00800           0   0.00000     -0.301140E-02
     11958 MEMB     96       OYPE     H15Y     HAL2     0.900000E-01   1.00800           0   0.00000     -0.301140E-02
     11959 MEMB     96       OYPE     C316     CTL2    -0.180000       12.0110           0   0.00000     -0.301140E-02
     11960 MEMB     96       OYPE     H16X     HAL2     0.900000E-01   1.00800           0   0.00000     -0.301140E-02
     11961 MEMB     96       OYPE     H16Y     HAL2     0.900000E-01   1.00800           0   0.00000     -0.301140E-02
     11962 MEMB     96       OYPE     C317     CTL2    -0.180000       12.0110           0   0.00000     -0.301140E-02
     11963 MEMB     96       OYPE     H17X     HAL2     0.900000E-01   1.00800           0   0.00000     -0.301140E-02
     11964 MEMB     96       OYPE     H17Y     HAL2     0.900000E-01   1.00800           0   0.00000     -0.301140E-02
     11965 MEMB     96       OYPE     C318     CTL3    -0.270000       12.0110           0   0.00000     -0.301140E-02
     11966 MEMB     96       OYPE     H18X     HAL3     0.900000E-01   1.00800           0   0.00000     -0.301140E-02
     11967 MEMB     96       OYPE     H18Y     HAL3     0.900000E-01   1.00800           0   0.00000     -0.301140E-02
     11968 MEMB     96       OYPE     H18Z     HAL3     0.900000E-01   1.00800           0   0.00000     -0.301140E-02
     11969 MEMB     97       QMPE     N        NH3L    -0.300000       14.0070           0   0.00000     -0.301140E-02
     11970 MEMB     97       QMPE     HN1      HCL      0.330000       1.00800           0   0.00000     -0.301140E-02
     11971 MEMB     97       QMPE     HN2      HCL      0.330000       1.00800           0   0.00000     -0.301140E-02
     11972 MEMB     97       QMPE     HN3      HCL      0.330000       1.00800           0   0.00000     -0.301140E-02
     11973 MEMB     97       QMPE     C12      CTL2     0.130000       12.0110           0   0.00000     -0.301140E-02
     11974 MEMB     97       QMPE     H12A     HAL2     0.900000E-01   1.00800           0   0.00000     -0.301140E-02
     11975 MEMB     97       QMPE     H12B     HAL2     0.900000E-01   1.00800           0   0.00000     -0.301140E-02
     11976 MEMB     97       QMPE     C11      CTL2    -0.800000E-01   12.0110           0   0.00000     -0.301140E-02
     11977 MEMB     97       QMPE     H11A     HAL2     0.900000E-01   1.00800           0   0.00000     -0.301140E-02
     11978 MEMB     97       QMPE     H11B     HAL2     0.900000E-01   1.00800           0   0.00000     -0.301140E-02
     11979 MEMB     97       QMPE     P        PL        1.50000       30.9740           0   0.00000     -0.301140E-02
     11980 MEMB     97       QMPE     O13      O2L     -0.780000       15.9994           0   0.00000     -0.301140E-02
     11981 MEMB     97       QMPE     O14      O2L     -0.780000       15.9994           0   0.00000     -0.301140E-02
     11982 MEMB     97       QMPE     O11      OSLP    -0.570000       15.9994           0   0.00000     -0.301140E-02
     11983 MEMB     97       QMPE     O12      OSLP    -0.570000       15.9994           0   0.00000     -0.301140E-02
     11984 MEMB     97       QMPE     C1       CTL2    -0.800000E-01   12.0110           0   0.00000     -0.301140E-02
     11985 MEMB     97       QMPE     HA       HAL2     0.900000E-01   1.00800           0   0.00000     -0.301140E-02
     11986 MEMB     97       QMPE     HB       HAL2     0.900000E-01   1.00800           0   0.00000     -0.301140E-02
     11987 MEMB     97       QMPE     C2       CTL1     0.170000       12.0110           0   0.00000     -0.301140E-02
     11988 MEMB     97       QMPE     HS       HAL1     0.900000E-01   1.00800           0   0.00000     -0.301140E-02
     11989 MEMB     97       QMPE     O21      OSL     -0.490000       15.9994           0   0.00000     -0.301140E-02
     11990 MEMB     97       QMPE     C21      CL       0.900000       12.0110           0   0.00000     -0.301140E-02
     11991 MEMB     97       QMPE     O22      OBL     -0.630000       15.9994           0   0.00000     -0.301140E-02
     11992 MEMB     97       QMPE     C22      CTL2    -0.220000       12.0110           0   0.00000     -0.301140E-02
     11993 MEMB     97       QMPE     H2R      HAL2     0.900000E-01   1.00800           0   0.00000     -0.301140E-02
     11994 MEMB     97       QMPE     H2S      HAL2     0.900000E-01   1.00800           0   0.00000     -0.301140E-02
     11995 MEMB     97       QMPE     C3       CTL2     0.800000E-01   12.0110           0   0.00000     -0.301140E-02
     11996 MEMB     97       QMPE     HX       HAL2     0.900000E-01   1.00800           0   0.00000     -0.301140E-02
     11997 MEMB     97       QMPE     HY       HAL2     0.900000E-01   1.00800           0   0.00000     -0.301140E-02
     11998 MEMB     97       QMPE     O31      OSL     -0.490000       15.9994           0   0.00000     -0.301140E-02
     11999 MEMB     97       QMPE     C31      CL       0.900000       12.0110           0   0.00000     -0.301140E-02
     12000 MEMB     97       QMPE     O32      OBL     -0.630000       15.9994           0   0.00000     -0.301140E-02
     12001 MEMB     97       QMPE     C32      CTL2    -0.220000       12.0110           0   0.00000     -0.301140E-02
     12002 MEMB     97       QMPE     H2X      HAL2     0.900000E-01   1.00800           0   0.00000     -0.301140E-02
     12003 MEMB     97       QMPE     H2Y      HAL2     0.900000E-01   1.00800           0   0.00000     -0.301140E-02
     12004 MEMB     97       QMPE     C23      CTL2    -0.180000       12.0110           0   0.00000     -0.301140E-02
     12005 MEMB     97       QMPE     H3R      HAL2     0.900000E-01   1.00800           0   0.00000     -0.301140E-02
     12006 MEMB     97       QMPE     H3S      HAL2     0.900000E-01   1.00800           0   0.00000     -0.301140E-02
     12007 MEMB     97       QMPE     C24      CTL2    -0.180000       12.0110           0   0.00000     -0.301140E-02
     12008 MEMB     97       QMPE     H4R      HAL2     0.900000E-01   1.00800           0   0.00000     -0.301140E-02
     12009 MEMB     97       QMPE     H4S      HAL2     0.900000E-01   1.00800           0   0.00000     -0.301140E-02
     12010 MEMB     97       QMPE     C25      CTL2    -0.180000       12.0110           0   0.00000     -0.301140E-02
     12011 MEMB     97       QMPE     H5R      HAL2     0.900000E-01   1.00800           0   0.00000     -0.301140E-02
     12012 MEMB     97       QMPE     H5S      HAL2     0.900000E-01   1.00800           0   0.00000     -0.301140E-02
     12013 MEMB     97       QMPE     C26      CTL2    -0.180000       12.0110           0   0.00000     -0.301140E-02
     12014 MEMB     97       QMPE     H6R      HAL2     0.900000E-01   1.00800           0   0.00000     -0.301140E-02
     12015 MEMB     97       QMPE     H6S      HAL2     0.900000E-01   1.00800           0   0.00000     -0.301140E-02
     12016 MEMB     97       QMPE     C27      CTL2    -0.180000       12.0110           0   0.00000     -0.301140E-02
     12017 MEMB     97       QMPE     H7R      HAL2     0.900000E-01   1.00800           0   0.00000     -0.301140E-02
     12018 MEMB     97       QMPE     H7S      HAL2     0.900000E-01   1.00800           0   0.00000     -0.301140E-02
     12019 MEMB     97       QMPE     C28      CTL2    -0.180000       12.0110           0   0.00000     -0.301140E-02
     12020 MEMB     97       QMPE     H8R      HAL2     0.900000E-01   1.00800           0   0.00000     -0.301140E-02
     12021 MEMB     97       QMPE     H8S      HAL2     0.900000E-01   1.00800           0   0.00000     -0.301140E-02
     12022 MEMB     97       QMPE     C29      CG3RC1  -0.900000E-01   12.0110           0   0.00000     -0.301140E-02
     12023 MEMB     97       QMPE     H9R      HGA1     0.900000E-01   1.00800           0   0.00000     -0.301140E-02
     12024 MEMB     97       QMPE     C217     CG3C31  -0.180000       12.0110           0   0.00000     -0.301140E-02
     12025 MEMB     97       QMPE     H17R     HGA2     0.900000E-01   1.00800           0   0.00000     -0.301140E-02
     12026 MEMB     97       QMPE     H17S     HGA2     0.900000E-01   1.00800           0   0.00000     -0.301140E-02
     12027 MEMB     97       QMPE     C210     CG3RC1  -0.900000E-01   12.0110           0   0.00000     -0.301140E-02
     12028 MEMB     97       QMPE     H10R     HGA1     0.900000E-01   1.00800           0   0.00000     -0.301140E-02
     12029 MEMB     97       QMPE     C211     CTL2    -0.180000       12.0110           0   0.00000     -0.301140E-02
     12030 MEMB     97       QMPE     H11R     HAL2     0.900000E-01   1.00800           0   0.00000     -0.301140E-02
     12031 MEMB     97       QMPE     H11S     HAL2     0.900000E-01   1.00800           0   0.00000     -0.301140E-02
     12032 MEMB     97       QMPE     C212     CTL2    -0.180000       12.0110           0   0.00000     -0.301140E-02
     12033 MEMB     97       QMPE     H12R     HAL2     0.900000E-01   1.00800           0   0.00000     -0.301140E-02
     12034 MEMB     97       QMPE     H12S     HAL2     0.900000E-01   1.00800           0   0.00000     -0.301140E-02
     12035 MEMB     97       QMPE     C213     CTL2    -0.180000       12.0110           0   0.00000     -0.301140E-02
     12036 MEMB     97       QMPE     H13R     HAL2     0.900000E-01   1.00800           0   0.00000     -0.301140E-02
     12037 MEMB     97       QMPE     H13S     HAL2     0.900000E-01   1.00800           0   0.00000     -0.301140E-02
     12038 MEMB     97       QMPE     C214     CTL2    -0.180000       12.0110           0   0.00000     -0.301140E-02
     12039 MEMB     97       QMPE     H14R     HAL2     0.900000E-01   1.00800           0   0.00000     -0.301140E-02
     12040 MEMB     97       QMPE     H14S     HAL2     0.900000E-01   1.00800           0   0.00000     -0.301140E-02
     12041 MEMB     97       QMPE     C215     CTL2    -0.180000       12.0110           0   0.00000     -0.301140E-02
     12042 MEMB     97       QMPE     H15R     HAL2     0.900000E-01   1.00800           0   0.00000     -0.301140E-02
     12043 MEMB     97       QMPE     H15S     HAL2     0.900000E-01   1.00800           0   0.00000     -0.301140E-02
     12044 MEMB     97       QMPE     C216     CTL3    -0.270000       12.0110           0   0.00000     -0.301140E-02
     12045 MEMB     97       QMPE     H16R     HAL3     0.900000E-01   1.00800           0   0.00000     -0.301140E-02
     12046 MEMB     97       QMPE     H16S     HAL3     0.900000E-01   1.00800           0   0.00000     -0.301140E-02
     12047 MEMB     97       QMPE     H16T     HAL3     0.900000E-01   1.00800           0   0.00000     -0.301140E-02
     12048 MEMB     97       QMPE     C33      CTL2    -0.180000       12.0110           0   0.00000     -0.301140E-02
     12049 MEMB     97       QMPE     H3X      HAL2     0.900000E-01   1.00800           0   0.00000     -0.301140E-02
     12050 MEMB     97       QMPE     H3Y      HAL2     0.900000E-01   1.00800           0   0.00000     -0.301140E-02
     12051 MEMB     97       QMPE     C34      CTL2    -0.180000       12.0110           0   0.00000     -0.301140E-02
     12052 MEMB     97       QMPE     H4X      HAL2     0.900000E-01   1.00800           0   0.00000     -0.301140E-02
     12053 MEMB     97       QMPE     H4Y      HAL2     0.900000E-01   1.00800           0   0.00000     -0.301140E-02
     12054 MEMB     97       QMPE     C35      CTL2    -0.180000       12.0110           0   0.00000     -0.301140E-02
     12055 MEMB     97       QMPE     H5X      HAL2     0.900000E-01   1.00800           0   0.00000     -0.301140E-02
     12056 MEMB     97       QMPE     H5Y      HAL2     0.900000E-01   1.00800           0   0.00000     -0.301140E-02
     12057 MEMB     97       QMPE     C36      CTL2    -0.180000       12.0110           0   0.00000     -0.301140E-02
     12058 MEMB     97       QMPE     H6X      HAL2     0.900000E-01   1.00800           0   0.00000     -0.301140E-02
     12059 MEMB     97       QMPE     H6Y      HAL2     0.900000E-01   1.00800           0   0.00000     -0.301140E-02
     12060 MEMB     97       QMPE     C37      CTL2    -0.180000       12.0110           0   0.00000     -0.301140E-02
     12061 MEMB     97       QMPE     H7X      HAL2     0.900000E-01   1.00800           0   0.00000     -0.301140E-02
     12062 MEMB     97       QMPE     H7Y      HAL2     0.900000E-01   1.00800           0   0.00000     -0.301140E-02
     12063 MEMB     97       QMPE     C38      CTL2    -0.180000       12.0110           0   0.00000     -0.301140E-02
     12064 MEMB     97       QMPE     H8X      HAL2     0.900000E-01   1.00800           0   0.00000     -0.301140E-02
     12065 MEMB     97       QMPE     H8Y      HAL2     0.900000E-01   1.00800           0   0.00000     -0.301140E-02
     12066 MEMB     97       QMPE     C39      CTL2    -0.180000       12.0110           0   0.00000     -0.301140E-02
     12067 MEMB     97       QMPE     H9X      HAL2     0.900000E-01   1.00800           0   0.00000     -0.301140E-02
     12068 MEMB     97       QMPE     H9Y      HAL2     0.900000E-01   1.00800           0   0.00000     -0.301140E-02
     12069 MEMB     97       QMPE     C310     CTL2    -0.180000       12.0110           0   0.00000     -0.301140E-02
     12070 MEMB     97       QMPE     H10X     HAL2     0.900000E-01   1.00800           0   0.00000     -0.301140E-02
     12071 MEMB     97       QMPE     H10Y     HAL2     0.900000E-01   1.00800           0   0.00000     -0.301140E-02
     12072 MEMB     97       QMPE     C311     CTL2    -0.180000       12.0110           0   0.00000     -0.301140E-02
     12073 MEMB     97       QMPE     H11X     HAL2     0.900000E-01   1.00800           0   0.00000     -0.301140E-02
     12074 MEMB     97       QMPE     H11Y     HAL2     0.900000E-01   1.00800           0   0.00000     -0.301140E-02
     12075 MEMB     97       QMPE     C312     CTL2    -0.180000       12.0110           0   0.00000     -0.301140E-02
     12076 MEMB     97       QMPE     H12X     HAL2     0.900000E-01   1.00800           0   0.00000     -0.301140E-02
     12077 MEMB     97       QMPE     H12Y     HAL2     0.900000E-01   1.00800           0   0.00000     -0.301140E-02
     12078 MEMB     97       QMPE     C313     CTL2    -0.180000       12.0110           0   0.00000     -0.301140E-02
     12079 MEMB     97       QMPE     H13X     HAL2     0.900000E-01   1.00800           0   0.00000     -0.301140E-02
     12080 MEMB     97       QMPE     H13Y     HAL2     0.900000E-01   1.00800           0   0.00000     -0.301140E-02
     12081 MEMB     97       QMPE     C314     CTL2    -0.180000       12.0110           0   0.00000     -0.301140E-02
     12082 MEMB     97       QMPE     H14X     HAL2     0.900000E-01   1.00800           0   0.00000     -0.301140E-02
     12083 MEMB     97       QMPE     H14Y     HAL2     0.900000E-01   1.00800           0   0.00000     -0.301140E-02
     12084 MEMB     97       QMPE     C315     CTL3    -0.270000       12.0110           0   0.00000     -0.301140E-02
     12085 MEMB     97       QMPE     H15X     HAL3     0.900000E-01   1.00800           0   0.00000     -0.301140E-02
     12086 MEMB     97       QMPE     H15Y     HAL3     0.900000E-01   1.00800           0   0.00000     -0.301140E-02
     12087 MEMB     97       QMPE     H15Z     HAL3     0.900000E-01   1.00800           0   0.00000     -0.301140E-02
     12088 MEMB     98       PYPG     C13      CTL2     0.500000E-01   12.0110           0   0.00000     -0.301140E-02
     12089 MEMB     98       PYPG     H13A     HAL2     0.900000E-01   1.00800           0   0.00000     -0.301140E-02
     12090 MEMB     98       PYPG     H13B     HAL2     0.900000E-01   1.00800           0   0.00000     -0.301140E-02
     12091 MEMB     98       PYPG     OC3      OHL     -0.660000       15.9994           0   0.00000     -0.301140E-02
     12092 MEMB     98       PYPG     HO3      HOL      0.430000       1.00800           0   0.00000     -0.301140E-02
     12093 MEMB     98       PYPG     C12      CTL1     0.140000       12.0110           0   0.00000     -0.301140E-02
     12094 MEMB     98       PYPG     H12A     HAL1     0.900000E-01   1.00800           0   0.00000     -0.301140E-02
     12095 MEMB     98       PYPG     OC2      OHL     -0.660000       15.9994           0   0.00000     -0.301140E-02
     12096 MEMB     98       PYPG     HO2      HOL      0.430000       1.00800           0   0.00000     -0.301140E-02
     12097 MEMB     98       PYPG     C11      CTL2    -0.800000E-01   12.0110           0   0.00000     -0.301140E-02
     12098 MEMB     98       PYPG     H11A     HAL2     0.900000E-01   1.00800           0   0.00000     -0.301140E-02
     12099 MEMB     98       PYPG     H11B     HAL2     0.900000E-01   1.00800           0   0.00000     -0.301140E-02
     12100 MEMB     98       PYPG     P        PL        1.50000       30.9740           0   0.00000     -0.301140E-02
     12101 MEMB     98       PYPG     O13      O2L     -0.780000       15.9994           0   0.00000     -0.301140E-02
     12102 MEMB     98       PYPG     O14      O2L     -0.780000       15.9994           0   0.00000     -0.301140E-02
     12103 MEMB     98       PYPG     O11      OSLP    -0.570000       15.9994           0   0.00000     -0.301140E-02
     12104 MEMB     98       PYPG     O12      OSLP    -0.570000       15.9994           0   0.00000     -0.301140E-02
     12105 MEMB     98       PYPG     C1       CTL2    -0.800000E-01   12.0110           0   0.00000     -0.301140E-02
     12106 MEMB     98       PYPG     HA       HAL2     0.900000E-01   1.00800           0   0.00000     -0.301140E-02
     12107 MEMB     98       PYPG     HB       HAL2     0.900000E-01   1.00800           0   0.00000     -0.301140E-02
     12108 MEMB     98       PYPG     C2       CTL1     0.170000       12.0110           0   0.00000     -0.301140E-02
     12109 MEMB     98       PYPG     HS       HAL1     0.900000E-01   1.00800           0   0.00000     -0.301140E-02
     12110 MEMB     98       PYPG     O21      OSL     -0.490000       15.9994           0   0.00000     -0.301140E-02
     12111 MEMB     98       PYPG     C21      CL       0.900000       12.0110           0   0.00000     -0.301140E-02
     12112 MEMB     98       PYPG     O22      OBL     -0.630000       15.9994           0   0.00000     -0.301140E-02
     12113 MEMB     98       PYPG     C22      CTL2    -0.220000       12.0110           0   0.00000     -0.301140E-02
     12114 MEMB     98       PYPG     H2R      HAL2     0.900000E-01   1.00800           0   0.00000     -0.301140E-02
     12115 MEMB     98       PYPG     H2S      HAL2     0.900000E-01   1.00800           0   0.00000     -0.301140E-02
     12116 MEMB     98       PYPG     C3       CTL2     0.800000E-01   12.0110           0   0.00000     -0.301140E-02
     12117 MEMB     98       PYPG     HX       HAL2     0.900000E-01   1.00800           0   0.00000     -0.301140E-02
     12118 MEMB     98       PYPG     HY       HAL2     0.900000E-01   1.00800           0   0.00000     -0.301140E-02
     12119 MEMB     98       PYPG     O31      OSL     -0.490000       15.9994           0   0.00000     -0.301140E-02
     12120 MEMB     98       PYPG     C31      CL       0.900000       12.0110           0   0.00000     -0.301140E-02
     12121 MEMB     98       PYPG     O32      OBL     -0.630000       15.9994           0   0.00000     -0.301140E-02
     12122 MEMB     98       PYPG     C32      CTL2    -0.220000       12.0110           0   0.00000     -0.301140E-02
     12123 MEMB     98       PYPG     H2X      HAL2     0.900000E-01   1.00800           0   0.00000     -0.301140E-02
     12124 MEMB     98       PYPG     H2Y      HAL2     0.900000E-01   1.00800           0   0.00000     -0.301140E-02
     12125 MEMB     98       PYPG     C23      CTL2    -0.180000       12.0110           0   0.00000     -0.301140E-02
     12126 MEMB     98       PYPG     H3R      HAL2     0.900000E-01   1.00800           0   0.00000     -0.301140E-02
     12127 MEMB     98       PYPG     H3S      HAL2     0.900000E-01   1.00800           0   0.00000     -0.301140E-02
     12128 MEMB     98       PYPG     C24      CTL2    -0.180000       12.0110           0   0.00000     -0.301140E-02
     12129 MEMB     98       PYPG     H4R      HAL2     0.900000E-01   1.00800           0   0.00000     -0.301140E-02
     12130 MEMB     98       PYPG     H4S      HAL2     0.900000E-01   1.00800           0   0.00000     -0.301140E-02
     12131 MEMB     98       PYPG     C25      CTL2    -0.180000       12.0110           0   0.00000     -0.301140E-02
     12132 MEMB     98       PYPG     H5R      HAL2     0.900000E-01   1.00800           0   0.00000     -0.301140E-02
     12133 MEMB     98       PYPG     H5S      HAL2     0.900000E-01   1.00800           0   0.00000     -0.301140E-02
     12134 MEMB     98       PYPG     C26      CTL2    -0.180000       12.0110           0   0.00000     -0.301140E-02
     12135 MEMB     98       PYPG     H6R      HAL2     0.900000E-01   1.00800           0   0.00000     -0.301140E-02
     12136 MEMB     98       PYPG     H6S      HAL2     0.900000E-01   1.00800           0   0.00000     -0.301140E-02
     12137 MEMB     98       PYPG     C27      CTL2    -0.180000       12.0110           0   0.00000     -0.301140E-02
     12138 MEMB     98       PYPG     H7R      HAL2     0.900000E-01   1.00800           0   0.00000     -0.301140E-02
     12139 MEMB     98       PYPG     H7S      HAL2     0.900000E-01   1.00800           0   0.00000     -0.301140E-02
     12140 MEMB     98       PYPG     C28      CTL2    -0.180000       12.0110           0   0.00000     -0.301140E-02
     12141 MEMB     98       PYPG     H8R      HAL2     0.900000E-01   1.00800           0   0.00000     -0.301140E-02
     12142 MEMB     98       PYPG     H8S      HAL2     0.900000E-01   1.00800           0   0.00000     -0.301140E-02
     12143 MEMB     98       PYPG     C29      CEL1    -0.150000       12.0110           0   0.00000     -0.301140E-02
     12144 MEMB     98       PYPG     H9R      HEL1     0.150000       1.00800           0   0.00000     -0.301140E-02
     12145 MEMB     98       PYPG     C210     CEL1    -0.150000       12.0110           0   0.00000     -0.301140E-02
     12146 MEMB     98       PYPG     H10R     HEL1     0.150000       1.00800           0   0.00000     -0.301140E-02
     12147 MEMB     98       PYPG     C211     CTL2    -0.180000       12.0110           0   0.00000     -0.301140E-02
     12148 MEMB     98       PYPG     H11R     HAL2     0.900000E-01   1.00800           0   0.00000     -0.301140E-02
     12149 MEMB     98       PYPG     H11S     HAL2     0.900000E-01   1.00800           0   0.00000     -0.301140E-02
     12150 MEMB     98       PYPG     C212     CTL2    -0.180000       12.0110           0   0.00000     -0.301140E-02
     12151 MEMB     98       PYPG     H12R     HAL2     0.900000E-01   1.00800           0   0.00000     -0.301140E-02
     12152 MEMB     98       PYPG     H12S     HAL2     0.900000E-01   1.00800           0   0.00000     -0.301140E-02
     12153 MEMB     98       PYPG     C213     CTL2    -0.180000       12.0110           0   0.00000     -0.301140E-02
     12154 MEMB     98       PYPG     H13R     HAL2     0.900000E-01   1.00800           0   0.00000     -0.301140E-02
     12155 MEMB     98       PYPG     H13S     HAL2     0.900000E-01   1.00800           0   0.00000     -0.301140E-02
     12156 MEMB     98       PYPG     C214     CTL2    -0.180000       12.0110           0   0.00000     -0.301140E-02
     12157 MEMB     98       PYPG     H14R     HAL2     0.900000E-01   1.00800           0   0.00000     -0.301140E-02
     12158 MEMB     98       PYPG     H14S     HAL2     0.900000E-01   1.00800           0   0.00000     -0.301140E-02
     12159 MEMB     98       PYPG     C215     CTL2    -0.180000       12.0110           0   0.00000     -0.301140E-02
     12160 MEMB     98       PYPG     H15R     HAL2     0.900000E-01   1.00800           0   0.00000     -0.301140E-02
     12161 MEMB     98       PYPG     H15S     HAL2     0.900000E-01   1.00800           0   0.00000     -0.301140E-02
     12162 MEMB     98       PYPG     C216     CTL3    -0.270000       12.0110           0   0.00000     -0.301140E-02
     12163 MEMB     98       PYPG     H16R     HAL3     0.900000E-01   1.00800           0   0.00000     -0.301140E-02
     12164 MEMB     98       PYPG     H16S     HAL3     0.900000E-01   1.00800           0   0.00000     -0.301140E-02
     12165 MEMB     98       PYPG     H16T     HAL3     0.900000E-01   1.00800           0   0.00000     -0.301140E-02
     12166 MEMB     98       PYPG     C33      CTL2    -0.180000       12.0110           0   0.00000     -0.301140E-02
     12167 MEMB     98       PYPG     H3X      HAL2     0.900000E-01   1.00800           0   0.00000     -0.301140E-02
     12168 MEMB     98       PYPG     H3Y      HAL2     0.900000E-01   1.00800           0   0.00000     -0.301140E-02
     12169 MEMB     98       PYPG     C34      CTL2    -0.180000       12.0110           0   0.00000     -0.301140E-02
     12170 MEMB     98       PYPG     H4X      HAL2     0.900000E-01   1.00800           0   0.00000     -0.301140E-02
     12171 MEMB     98       PYPG     H4Y      HAL2     0.900000E-01   1.00800           0   0.00000     -0.301140E-02
     12172 MEMB     98       PYPG     C35      CTL2    -0.180000       12.0110           0   0.00000     -0.301140E-02
     12173 MEMB     98       PYPG     H5X      HAL2     0.900000E-01   1.00800           0   0.00000     -0.301140E-02
     12174 MEMB     98       PYPG     H5Y      HAL2     0.900000E-01   1.00800           0   0.00000     -0.301140E-02
     12175 MEMB     98       PYPG     C36      CTL2    -0.180000       12.0110           0   0.00000     -0.301140E-02
     12176 MEMB     98       PYPG     H6X      HAL2     0.900000E-01   1.00800           0   0.00000     -0.301140E-02
     12177 MEMB     98       PYPG     H6Y      HAL2     0.900000E-01   1.00800           0   0.00000     -0.301140E-02
     12178 MEMB     98       PYPG     C37      CTL2    -0.180000       12.0110           0   0.00000     -0.301140E-02
     12179 MEMB     98       PYPG     H7X      HAL2     0.900000E-01   1.00800           0   0.00000     -0.301140E-02
     12180 MEMB     98       PYPG     H7Y      HAL2     0.900000E-01   1.00800           0   0.00000     -0.301140E-02
     12181 MEMB     98       PYPG     C38      CTL2    -0.180000       12.0110           0   0.00000     -0.301140E-02
     12182 MEMB     98       PYPG     H8X      HAL2     0.900000E-01   1.00800           0   0.00000     -0.301140E-02
     12183 MEMB     98       PYPG     H8Y      HAL2     0.900000E-01   1.00800           0   0.00000     -0.301140E-02
     12184 MEMB     98       PYPG     C39      CTL2    -0.180000       12.0110           0   0.00000     -0.301140E-02
     12185 MEMB     98       PYPG     H9X      HAL2     0.900000E-01   1.00800           0   0.00000     -0.301140E-02
     12186 MEMB     98       PYPG     H9Y      HAL2     0.900000E-01   1.00800           0   0.00000     -0.301140E-02
     12187 MEMB     98       PYPG     C310     CTL2    -0.180000       12.0110           0   0.00000     -0.301140E-02
     12188 MEMB     98       PYPG     H10X     HAL2     0.900000E-01   1.00800           0   0.00000     -0.301140E-02
     12189 MEMB     98       PYPG     H10Y     HAL2     0.900000E-01   1.00800           0   0.00000     -0.301140E-02
     12190 MEMB     98       PYPG     C311     CTL2    -0.180000       12.0110           0   0.00000     -0.301140E-02
     12191 MEMB     98       PYPG     H11X     HAL2     0.900000E-01   1.00800           0   0.00000     -0.301140E-02
     12192 MEMB     98       PYPG     H11Y     HAL2     0.900000E-01   1.00800           0   0.00000     -0.301140E-02
     12193 MEMB     98       PYPG     C312     CTL2    -0.180000       12.0110           0   0.00000     -0.301140E-02
     12194 MEMB     98       PYPG     H12X     HAL2     0.900000E-01   1.00800           0   0.00000     -0.301140E-02
     12195 MEMB     98       PYPG     H12Y     HAL2     0.900000E-01   1.00800           0   0.00000     -0.301140E-02
     12196 MEMB     98       PYPG     C313     CTL2    -0.180000       12.0110           0   0.00000     -0.301140E-02
     12197 MEMB     98       PYPG     H13X     HAL2     0.900000E-01   1.00800           0   0.00000     -0.301140E-02
     12198 MEMB     98       PYPG     H13Y     HAL2     0.900000E-01   1.00800           0   0.00000     -0.301140E-02
     12199 MEMB     98       PYPG     C314     CTL2    -0.180000       12.0110           0   0.00000     -0.301140E-02
     12200 MEMB     98       PYPG     H14X     HAL2     0.900000E-01   1.00800           0   0.00000     -0.301140E-02
     12201 MEMB     98       PYPG     H14Y     HAL2     0.900000E-01   1.00800           0   0.00000     -0.301140E-02
     12202 MEMB     98       PYPG     C315     CTL2    -0.180000       12.0110           0   0.00000     -0.301140E-02
     12203 MEMB     98       PYPG     H15X     HAL2     0.900000E-01   1.00800           0   0.00000     -0.301140E-02
     12204 MEMB     98       PYPG     H15Y     HAL2     0.900000E-01   1.00800           0   0.00000     -0.301140E-02
     12205 MEMB     98       PYPG     C316     CTL3    -0.270000       12.0110           0   0.00000     -0.301140E-02
     12206 MEMB     98       PYPG     H16X     HAL3     0.900000E-01   1.00800           0   0.00000     -0.301140E-02
     12207 MEMB     98       PYPG     H16Y     HAL3     0.900000E-01   1.00800           0   0.00000     -0.301140E-02
     12208 MEMB     98       PYPG     H16Z     HAL3     0.900000E-01   1.00800           0   0.00000     -0.301140E-02
     12209 MEMB     99       POPE     N        NH3L    -0.300000       14.0070           0   0.00000     -0.301140E-02
     12210 MEMB     99       POPE     HN1      HCL      0.330000       1.00800           0   0.00000     -0.301140E-02
     12211 MEMB     99       POPE     HN2      HCL      0.330000       1.00800           0   0.00000     -0.301140E-02
     12212 MEMB     99       POPE     HN3      HCL      0.330000       1.00800           0   0.00000     -0.301140E-02
     12213 MEMB     99       POPE     C12      CTL2     0.130000       12.0110           0   0.00000     -0.301140E-02
     12214 MEMB     99       POPE     H12A     HAL2     0.900000E-01   1.00800           0   0.00000     -0.301140E-02
     12215 MEMB     99       POPE     H12B     HAL2     0.900000E-01   1.00800           0   0.00000     -0.301140E-02
     12216 MEMB     99       POPE     C11      CTL2    -0.800000E-01   12.0110           0   0.00000     -0.301140E-02
     12217 MEMB     99       POPE     H11A     HAL2     0.900000E-01   1.00800           0   0.00000     -0.301140E-02
     12218 MEMB     99       POPE     H11B     HAL2     0.900000E-01   1.00800           0   0.00000     -0.301140E-02
     12219 MEMB     99       POPE     P        PL        1.50000       30.9740           0   0.00000     -0.301140E-02
     12220 MEMB     99       POPE     O13      O2L     -0.780000       15.9994           0   0.00000     -0.301140E-02
     12221 MEMB     99       POPE     O14      O2L     -0.780000       15.9994           0   0.00000     -0.301140E-02
     12222 MEMB     99       POPE     O11      OSLP    -0.570000       15.9994           0   0.00000     -0.301140E-02
     12223 MEMB     99       POPE     O12      OSLP    -0.570000       15.9994           0   0.00000     -0.301140E-02
     12224 MEMB     99       POPE     C1       CTL2    -0.800000E-01   12.0110           0   0.00000     -0.301140E-02
     12225 MEMB     99       POPE     HA       HAL2     0.900000E-01   1.00800           0   0.00000     -0.301140E-02
     12226 MEMB     99       POPE     HB       HAL2     0.900000E-01   1.00800           0   0.00000     -0.301140E-02
     12227 MEMB     99       POPE     C2       CTL1     0.170000       12.0110           0   0.00000     -0.301140E-02
     12228 MEMB     99       POPE     HS       HAL1     0.900000E-01   1.00800           0   0.00000     -0.301140E-02
     12229 MEMB     99       POPE     O21      OSL     -0.490000       15.9994           0   0.00000     -0.301140E-02
     12230 MEMB     99       POPE     C21      CL       0.900000       12.0110           0   0.00000     -0.301140E-02
     12231 MEMB     99       POPE     O22      OBL     -0.630000       15.9994           0   0.00000     -0.301140E-02
     12232 MEMB     99       POPE     C22      CTL2    -0.220000       12.0110           0   0.00000     -0.301140E-02
     12233 MEMB     99       POPE     H2R      HAL2     0.900000E-01   1.00800           0   0.00000     -0.301140E-02
     12234 MEMB     99       POPE     H2S      HAL2     0.900000E-01   1.00800           0   0.00000     -0.301140E-02
     12235 MEMB     99       POPE     C3       CTL2     0.800000E-01   12.0110           0   0.00000     -0.301140E-02
     12236 MEMB     99       POPE     HX       HAL2     0.900000E-01   1.00800           0   0.00000     -0.301140E-02
     12237 MEMB     99       POPE     HY       HAL2     0.900000E-01   1.00800           0   0.00000     -0.301140E-02
     12238 MEMB     99       POPE     O31      OSL     -0.490000       15.9994           0   0.00000     -0.301140E-02
     12239 MEMB     99       POPE     C31      CL       0.900000       12.0110           0   0.00000     -0.301140E-02
     12240 MEMB     99       POPE     O32      OBL     -0.630000       15.9994           0   0.00000     -0.301140E-02
     12241 MEMB     99       POPE     C32      CTL2    -0.220000       12.0110           0   0.00000     -0.301140E-02
     12242 MEMB     99       POPE     H2X      HAL2     0.900000E-01   1.00800           0   0.00000     -0.301140E-02
     12243 MEMB     99       POPE     H2Y      HAL2     0.900000E-01   1.00800           0   0.00000     -0.301140E-02
     12244 MEMB     99       POPE     C23      CTL2    -0.180000       12.0110           0   0.00000     -0.301140E-02
     12245 MEMB     99       POPE     H3R      HAL2     0.900000E-01   1.00800           0   0.00000     -0.301140E-02
     12246 MEMB     99       POPE     H3S      HAL2     0.900000E-01   1.00800           0   0.00000     -0.301140E-02
     12247 MEMB     99       POPE     C24      CTL2    -0.180000       12.0110           0   0.00000     -0.301140E-02
     12248 MEMB     99       POPE     H4R      HAL2     0.900000E-01   1.00800           0   0.00000     -0.301140E-02
     12249 MEMB     99       POPE     H4S      HAL2     0.900000E-01   1.00800           0   0.00000     -0.301140E-02
     12250 MEMB     99       POPE     C25      CTL2    -0.180000       12.0110           0   0.00000     -0.301140E-02
     12251 MEMB     99       POPE     H5R      HAL2     0.900000E-01   1.00800           0   0.00000     -0.301140E-02
     12252 MEMB     99       POPE     H5S      HAL2     0.900000E-01   1.00800           0   0.00000     -0.301140E-02
     12253 MEMB     99       POPE     C26      CTL2    -0.180000       12.0110           0   0.00000     -0.301140E-02
     12254 MEMB     99       POPE     H6R      HAL2     0.900000E-01   1.00800           0   0.00000     -0.301140E-02
     12255 MEMB     99       POPE     H6S      HAL2     0.900000E-01   1.00800           0   0.00000     -0.301140E-02
     12256 MEMB     99       POPE     C27      CTL2    -0.180000       12.0110           0   0.00000     -0.301140E-02
     12257 MEMB     99       POPE     H7R      HAL2     0.900000E-01   1.00800           0   0.00000     -0.301140E-02
     12258 MEMB     99       POPE     H7S      HAL2     0.900000E-01   1.00800           0   0.00000     -0.301140E-02
     12259 MEMB     99       POPE     C28      CTL2    -0.180000       12.0110           0   0.00000     -0.301140E-02
     12260 MEMB     99       POPE     H8R      HAL2     0.900000E-01   1.00800           0   0.00000     -0.301140E-02
     12261 MEMB     99       POPE     H8S      HAL2     0.900000E-01   1.00800           0   0.00000     -0.301140E-02
     12262 MEMB     99       POPE     C29      CEL1    -0.150000       12.0110           0   0.00000     -0.301140E-02
     12263 MEMB     99       POPE     H91      HEL1     0.150000       1.00800           0   0.00000     -0.301140E-02
     12264 MEMB     99       POPE     C210     CEL1    -0.150000       12.0110           0   0.00000     -0.301140E-02
     12265 MEMB     99       POPE     H101     HEL1     0.150000       1.00800           0   0.00000     -0.301140E-02
     12266 MEMB     99       POPE     C211     CTL2    -0.180000       12.0110           0   0.00000     -0.301140E-02
     12267 MEMB     99       POPE     H11R     HAL2     0.900000E-01   1.00800           0   0.00000     -0.301140E-02
     12268 MEMB     99       POPE     H11S     HAL2     0.900000E-01   1.00800           0   0.00000     -0.301140E-02
     12269 MEMB     99       POPE     C212     CTL2    -0.180000       12.0110           0   0.00000     -0.301140E-02
     12270 MEMB     99       POPE     H12R     HAL2     0.900000E-01   1.00800           0   0.00000     -0.301140E-02
     12271 MEMB     99       POPE     H12S     HAL2     0.900000E-01   1.00800           0   0.00000     -0.301140E-02
     12272 MEMB     99       POPE     C213     CTL2    -0.180000       12.0110           0   0.00000     -0.301140E-02
     12273 MEMB     99       POPE     H13R     HAL2     0.900000E-01   1.00800           0   0.00000     -0.301140E-02
     12274 MEMB     99       POPE     H13S     HAL2     0.900000E-01   1.00800           0   0.00000     -0.301140E-02
     12275 MEMB     99       POPE     C214     CTL2    -0.180000       12.0110           0   0.00000     -0.301140E-02
     12276 MEMB     99       POPE     H14R     HAL2     0.900000E-01   1.00800           0   0.00000     -0.301140E-02
     12277 MEMB     99       POPE     H14S     HAL2     0.900000E-01   1.00800           0   0.00000     -0.301140E-02
     12278 MEMB     99       POPE     C215     CTL2    -0.180000       12.0110           0   0.00000     -0.301140E-02
     12279 MEMB     99       POPE     H15R     HAL2     0.900000E-01   1.00800           0   0.00000     -0.301140E-02
     12280 MEMB     99       POPE     H15S     HAL2     0.900000E-01   1.00800           0   0.00000     -0.301140E-02
     12281 MEMB     99       POPE     C216     CTL2    -0.180000       12.0110           0   0.00000     -0.301140E-02
     12282 MEMB     99       POPE     H16R     HAL2     0.900000E-01   1.00800           0   0.00000     -0.301140E-02
     12283 MEMB     99       POPE     H16S     HAL2     0.900000E-01   1.00800           0   0.00000     -0.301140E-02
     12284 MEMB     99       POPE     C217     CTL2    -0.180000       12.0110           0   0.00000     -0.301140E-02
     12285 MEMB     99       POPE     H17R     HAL2     0.900000E-01   1.00800           0   0.00000     -0.301140E-02
     12286 MEMB     99       POPE     H17S     HAL2     0.900000E-01   1.00800           0   0.00000     -0.301140E-02
     12287 MEMB     99       POPE     C218     CTL3    -0.270000       12.0110           0   0.00000     -0.301140E-02
     12288 MEMB     99       POPE     H18R     HAL3     0.900000E-01   1.00800           0   0.00000     -0.301140E-02
     12289 MEMB     99       POPE     H18S     HAL3     0.900000E-01   1.00800           0   0.00000     -0.301140E-02
     12290 MEMB     99       POPE     H18T     HAL3     0.900000E-01   1.00800           0   0.00000     -0.301140E-02
     12291 MEMB     99       POPE     C33      CTL2    -0.180000       12.0110           0   0.00000     -0.301140E-02
     12292 MEMB     99       POPE     H3X      HAL2     0.900000E-01   1.00800           0   0.00000     -0.301140E-02
     12293 MEMB     99       POPE     H3Y      HAL2     0.900000E-01   1.00800           0   0.00000     -0.301140E-02
     12294 MEMB     99       POPE     C34      CTL2    -0.180000       12.0110           0   0.00000     -0.301140E-02
     12295 MEMB     99       POPE     H4X      HAL2     0.900000E-01   1.00800           0   0.00000     -0.301140E-02
     12296 MEMB     99       POPE     H4Y      HAL2     0.900000E-01   1.00800           0   0.00000     -0.301140E-02
     12297 MEMB     99       POPE     C35      CTL2    -0.180000       12.0110           0   0.00000     -0.301140E-02
     12298 MEMB     99       POPE     H5X      HAL2     0.900000E-01   1.00800           0   0.00000     -0.301140E-02
     12299 MEMB     99       POPE     H5Y      HAL2     0.900000E-01   1.00800           0   0.00000     -0.301140E-02
     12300 MEMB     99       POPE     C36      CTL2    -0.180000       12.0110           0   0.00000     -0.301140E-02
     12301 MEMB     99       POPE     H6X      HAL2     0.900000E-01   1.00800           0   0.00000     -0.301140E-02
     12302 MEMB     99       POPE     H6Y      HAL2     0.900000E-01   1.00800           0   0.00000     -0.301140E-02
     12303 MEMB     99       POPE     C37      CTL2    -0.180000       12.0110           0   0.00000     -0.301140E-02
     12304 MEMB     99       POPE     H7X      HAL2     0.900000E-01   1.00800           0   0.00000     -0.301140E-02
     12305 MEMB     99       POPE     H7Y      HAL2     0.900000E-01   1.00800           0   0.00000     -0.301140E-02
     12306 MEMB     99       POPE     C38      CTL2    -0.180000       12.0110           0   0.00000     -0.301140E-02
     12307 MEMB     99       POPE     H8X      HAL2     0.900000E-01   1.00800           0   0.00000     -0.301140E-02
     12308 MEMB     99       POPE     H8Y      HAL2     0.900000E-01   1.00800           0   0.00000     -0.301140E-02
     12309 MEMB     99       POPE     C39      CTL2    -0.180000       12.0110           0   0.00000     -0.301140E-02
     12310 MEMB     99       POPE     H9X      HAL2     0.900000E-01   1.00800           0   0.00000     -0.301140E-02
     12311 MEMB     99       POPE     H9Y      HAL2     0.900000E-01   1.00800           0   0.00000     -0.301140E-02
     12312 MEMB     99       POPE     C310     CTL2    -0.180000       12.0110           0   0.00000     -0.301140E-02
     12313 MEMB     99       POPE     H10X     HAL2     0.900000E-01   1.00800           0   0.00000     -0.301140E-02
     12314 MEMB     99       POPE     H10Y     HAL2     0.900000E-01   1.00800           0   0.00000     -0.301140E-02
     12315 MEMB     99       POPE     C311     CTL2    -0.180000       12.0110           0   0.00000     -0.301140E-02
     12316 MEMB     99       POPE     H11X     HAL2     0.900000E-01   1.00800           0   0.00000     -0.301140E-02
     12317 MEMB     99       POPE     H11Y     HAL2     0.900000E-01   1.00800           0   0.00000     -0.301140E-02
     12318 MEMB     99       POPE     C312     CTL2    -0.180000       12.0110           0   0.00000     -0.301140E-02
     12319 MEMB     99       POPE     H12X     HAL2     0.900000E-01   1.00800           0   0.00000     -0.301140E-02
     12320 MEMB     99       POPE     H12Y     HAL2     0.900000E-01   1.00800           0   0.00000     -0.301140E-02
     12321 MEMB     99       POPE     C313     CTL2    -0.180000       12.0110           0   0.00000     -0.301140E-02
     12322 MEMB     99       POPE     H13X     HAL2     0.900000E-01   1.00800           0   0.00000     -0.301140E-02
     12323 MEMB     99       POPE     H13Y     HAL2     0.900000E-01   1.00800           0   0.00000     -0.301140E-02
     12324 MEMB     99       POPE     C314     CTL2    -0.180000       12.0110           0   0.00000     -0.301140E-02
     12325 MEMB     99       POPE     H14X     HAL2     0.900000E-01   1.00800           0   0.00000     -0.301140E-02
     12326 MEMB     99       POPE     H14Y     HAL2     0.900000E-01   1.00800           0   0.00000     -0.301140E-02
     12327 MEMB     99       POPE     C315     CTL2    -0.180000       12.0110           0   0.00000     -0.301140E-02
     12328 MEMB     99       POPE     H15X     HAL2     0.900000E-01   1.00800           0   0.00000     -0.301140E-02
     12329 MEMB     99       POPE     H15Y     HAL2     0.900000E-01   1.00800           0   0.00000     -0.301140E-02
     12330 MEMB     99       POPE     C316     CTL3    -0.270000       12.0110           0   0.00000     -0.301140E-02
     12331 MEMB     99       POPE     H16X     HAL3     0.900000E-01   1.00800           0   0.00000     -0.301140E-02
     12332 MEMB     99       POPE     H16Y     HAL3     0.900000E-01   1.00800           0   0.00000     -0.301140E-02
     12333 MEMB     99       POPE     H16Z     HAL3     0.900000E-01   1.00800           0   0.00000     -0.301140E-02
     12334 MEMB     100      POPE     N        NH3L    -0.300000       14.0070           0   0.00000     -0.301140E-02
     12335 MEMB     100      POPE     HN1      HCL      0.330000       1.00800           0   0.00000     -0.301140E-02
     12336 MEMB     100      POPE     HN2      HCL      0.330000       1.00800           0   0.00000     -0.301140E-02
     12337 MEMB     100      POPE     HN3      HCL      0.330000       1.00800           0   0.00000     -0.301140E-02
     12338 MEMB     100      POPE     C12      CTL2     0.130000       12.0110           0   0.00000     -0.301140E-02
     12339 MEMB     100      POPE     H12A     HAL2     0.900000E-01   1.00800           0   0.00000     -0.301140E-02
     12340 MEMB     100      POPE     H12B     HAL2     0.900000E-01   1.00800           0   0.00000     -0.301140E-02
     12341 MEMB     100      POPE     C11      CTL2    -0.800000E-01   12.0110           0   0.00000     -0.301140E-02
     12342 MEMB     100      POPE     H11A     HAL2     0.900000E-01   1.00800           0   0.00000     -0.301140E-02
     12343 MEMB     100      POPE     H11B     HAL2     0.900000E-01   1.00800           0   0.00000     -0.301140E-02
     12344 MEMB     100      POPE     P        PL        1.50000       30.9740           0   0.00000     -0.301140E-02
     12345 MEMB     100      POPE     O13      O2L     -0.780000       15.9994           0   0.00000     -0.301140E-02
     12346 MEMB     100      POPE     O14      O2L     -0.780000       15.9994           0   0.00000     -0.301140E-02
     12347 MEMB     100      POPE     O11      OSLP    -0.570000       15.9994           0   0.00000     -0.301140E-02
     12348 MEMB     100      POPE     O12      OSLP    -0.570000       15.9994           0   0.00000     -0.301140E-02
     12349 MEMB     100      POPE     C1       CTL2    -0.800000E-01   12.0110           0   0.00000     -0.301140E-02
     12350 MEMB     100      POPE     HA       HAL2     0.900000E-01   1.00800           0   0.00000     -0.301140E-02
     12351 MEMB     100      POPE     HB       HAL2     0.900000E-01   1.00800           0   0.00000     -0.301140E-02
     12352 MEMB     100      POPE     C2       CTL1     0.170000       12.0110           0   0.00000     -0.301140E-02
     12353 MEMB     100      POPE     HS       HAL1     0.900000E-01   1.00800           0   0.00000     -0.301140E-02
     12354 MEMB     100      POPE     O21      OSL     -0.490000       15.9994           0   0.00000     -0.301140E-02
     12355 MEMB     100      POPE     C21      CL       0.900000       12.0110           0   0.00000     -0.301140E-02
     12356 MEMB     100      POPE     O22      OBL     -0.630000       15.9994           0   0.00000     -0.301140E-02
     12357 MEMB     100      POPE     C22      CTL2    -0.220000       12.0110           0   0.00000     -0.301140E-02
     12358 MEMB     100      POPE     H2R      HAL2     0.900000E-01   1.00800           0   0.00000     -0.301140E-02
     12359 MEMB     100      POPE     H2S      HAL2     0.900000E-01   1.00800           0   0.00000     -0.301140E-02
     12360 MEMB     100      POPE     C3       CTL2     0.800000E-01   12.0110           0   0.00000     -0.301140E-02
     12361 MEMB     100      POPE     HX       HAL2     0.900000E-01   1.00800           0   0.00000     -0.301140E-02
     12362 MEMB     100      POPE     HY       HAL2     0.900000E-01   1.00800           0   0.00000     -0.301140E-02
     12363 MEMB     100      POPE     O31      OSL     -0.490000       15.9994           0   0.00000     -0.301140E-02
     12364 MEMB     100      POPE     C31      CL       0.900000       12.0110           0   0.00000     -0.301140E-02
     12365 MEMB     100      POPE     O32      OBL     -0.630000       15.9994           0   0.00000     -0.301140E-02
     12366 MEMB     100      POPE     C32      CTL2    -0.220000       12.0110           0   0.00000     -0.301140E-02
     12367 MEMB     100      POPE     H2X      HAL2     0.900000E-01   1.00800           0   0.00000     -0.301140E-02
     12368 MEMB     100      POPE     H2Y      HAL2     0.900000E-01   1.00800           0   0.00000     -0.301140E-02
     12369 MEMB     100      POPE     C23      CTL2    -0.180000       12.0110           0   0.00000     -0.301140E-02
     12370 MEMB     100      POPE     H3R      HAL2     0.900000E-01   1.00800           0   0.00000     -0.301140E-02
     12371 MEMB     100      POPE     H3S      HAL2     0.900000E-01   1.00800           0   0.00000     -0.301140E-02
     12372 MEMB     100      POPE     C24      CTL2    -0.180000       12.0110           0   0.00000     -0.301140E-02
     12373 MEMB     100      POPE     H4R      HAL2     0.900000E-01   1.00800           0   0.00000     -0.301140E-02
     12374 MEMB     100      POPE     H4S      HAL2     0.900000E-01   1.00800           0   0.00000     -0.301140E-02
     12375 MEMB     100      POPE     C25      CTL2    -0.180000       12.0110           0   0.00000     -0.301140E-02
     12376 MEMB     100      POPE     H5R      HAL2     0.900000E-01   1.00800           0   0.00000     -0.301140E-02
     12377 MEMB     100      POPE     H5S      HAL2     0.900000E-01   1.00800           0   0.00000     -0.301140E-02
     12378 MEMB     100      POPE     C26      CTL2    -0.180000       12.0110           0   0.00000     -0.301140E-02
     12379 MEMB     100      POPE     H6R      HAL2     0.900000E-01   1.00800           0   0.00000     -0.301140E-02
     12380 MEMB     100      POPE     H6S      HAL2     0.900000E-01   1.00800           0   0.00000     -0.301140E-02
     12381 MEMB     100      POPE     C27      CTL2    -0.180000       12.0110           0   0.00000     -0.301140E-02
     12382 MEMB     100      POPE     H7R      HAL2     0.900000E-01   1.00800           0   0.00000     -0.301140E-02
     12383 MEMB     100      POPE     H7S      HAL2     0.900000E-01   1.00800           0   0.00000     -0.301140E-02
     12384 MEMB     100      POPE     C28      CTL2    -0.180000       12.0110           0   0.00000     -0.301140E-02
     12385 MEMB     100      POPE     H8R      HAL2     0.900000E-01   1.00800           0   0.00000     -0.301140E-02
     12386 MEMB     100      POPE     H8S      HAL2     0.900000E-01   1.00800           0   0.00000     -0.301140E-02
     12387 MEMB     100      POPE     C29      CEL1    -0.150000       12.0110           0   0.00000     -0.301140E-02
     12388 MEMB     100      POPE     H91      HEL1     0.150000       1.00800           0   0.00000     -0.301140E-02
     12389 MEMB     100      POPE     C210     CEL1    -0.150000       12.0110           0   0.00000     -0.301140E-02
     12390 MEMB     100      POPE     H101     HEL1     0.150000       1.00800           0   0.00000     -0.301140E-02
     12391 MEMB     100      POPE     C211     CTL2    -0.180000       12.0110           0   0.00000     -0.301140E-02
     12392 MEMB     100      POPE     H11R     HAL2     0.900000E-01   1.00800           0   0.00000     -0.301140E-02
     12393 MEMB     100      POPE     H11S     HAL2     0.900000E-01   1.00800           0   0.00000     -0.301140E-02
     12394 MEMB     100      POPE     C212     CTL2    -0.180000       12.0110           0   0.00000     -0.301140E-02
     12395 MEMB     100      POPE     H12R     HAL2     0.900000E-01   1.00800           0   0.00000     -0.301140E-02
     12396 MEMB     100      POPE     H12S     HAL2     0.900000E-01   1.00800           0   0.00000     -0.301140E-02
     12397 MEMB     100      POPE     C213     CTL2    -0.180000       12.0110           0   0.00000     -0.301140E-02
     12398 MEMB     100      POPE     H13R     HAL2     0.900000E-01   1.00800           0   0.00000     -0.301140E-02
     12399 MEMB     100      POPE     H13S     HAL2     0.900000E-01   1.00800           0   0.00000     -0.301140E-02
     12400 MEMB     100      POPE     C214     CTL2    -0.180000       12.0110           0   0.00000     -0.301140E-02
     12401 MEMB     100      POPE     H14R     HAL2     0.900000E-01   1.00800           0   0.00000     -0.301140E-02
     12402 MEMB     100      POPE     H14S     HAL2     0.900000E-01   1.00800           0   0.00000     -0.301140E-02
     12403 MEMB     100      POPE     C215     CTL2    -0.180000       12.0110           0   0.00000     -0.301140E-02
     12404 MEMB     100      POPE     H15R     HAL2     0.900000E-01   1.00800           0   0.00000     -0.301140E-02
     12405 MEMB     100      POPE     H15S     HAL2     0.900000E-01   1.00800           0   0.00000     -0.301140E-02
     12406 MEMB     100      POPE     C216     CTL2    -0.180000       12.0110           0   0.00000     -0.301140E-02
     12407 MEMB     100      POPE     H16R     HAL2     0.900000E-01   1.00800           0   0.00000     -0.301140E-02
     12408 MEMB     100      POPE     H16S     HAL2     0.900000E-01   1.00800           0   0.00000     -0.301140E-02
     12409 MEMB     100      POPE     C217     CTL2    -0.180000       12.0110           0   0.00000     -0.301140E-02
     12410 MEMB     100      POPE     H17R     HAL2     0.900000E-01   1.00800           0   0.00000     -0.301140E-02
     12411 MEMB     100      POPE     H17S     HAL2     0.900000E-01   1.00800           0   0.00000     -0.301140E-02
     12412 MEMB     100      POPE     C218     CTL3    -0.270000       12.0110           0   0.00000     -0.301140E-02
     12413 MEMB     100      POPE     H18R     HAL3     0.900000E-01   1.00800           0   0.00000     -0.301140E-02
     12414 MEMB     100      POPE     H18S     HAL3     0.900000E-01   1.00800           0   0.00000     -0.301140E-02
     12415 MEMB     100      POPE     H18T     HAL3     0.900000E-01   1.00800           0   0.00000     -0.301140E-02
     12416 MEMB     100      POPE     C33      CTL2    -0.180000       12.0110           0   0.00000     -0.301140E-02
     12417 MEMB     100      POPE     H3X      HAL2     0.900000E-01   1.00800           0   0.00000     -0.301140E-02
     12418 MEMB     100      POPE     H3Y      HAL2     0.900000E-01   1.00800           0   0.00000     -0.301140E-02
     12419 MEMB     100      POPE     C34      CTL2    -0.180000       12.0110           0   0.00000     -0.301140E-02
     12420 MEMB     100      POPE     H4X      HAL2     0.900000E-01   1.00800           0   0.00000     -0.301140E-02
     12421 MEMB     100      POPE     H4Y      HAL2     0.900000E-01   1.00800           0   0.00000     -0.301140E-02
     12422 MEMB     100      POPE     C35      CTL2    -0.180000       12.0110           0   0.00000     -0.301140E-02
     12423 MEMB     100      POPE     H5X      HAL2     0.900000E-01   1.00800           0   0.00000     -0.301140E-02
     12424 MEMB     100      POPE     H5Y      HAL2     0.900000E-01   1.00800           0   0.00000     -0.301140E-02
     12425 MEMB     100      POPE     C36      CTL2    -0.180000       12.0110           0   0.00000     -0.301140E-02
     12426 MEMB     100      POPE     H6X      HAL2     0.900000E-01   1.00800           0   0.00000     -0.301140E-02
     12427 MEMB     100      POPE     H6Y      HAL2     0.900000E-01   1.00800           0   0.00000     -0.301140E-02
     12428 MEMB     100      POPE     C37      CTL2    -0.180000       12.0110           0   0.00000     -0.301140E-02
     12429 MEMB     100      POPE     H7X      HAL2     0.900000E-01   1.00800           0   0.00000     -0.301140E-02
     12430 MEMB     100      POPE     H7Y      HAL2     0.900000E-01   1.00800           0   0.00000     -0.301140E-02
     12431 MEMB     100      POPE     C38      CTL2    -0.180000       12.0110           0   0.00000     -0.301140E-02
     12432 MEMB     100      POPE     H8X      HAL2     0.900000E-01   1.00800           0   0.00000     -0.301140E-02
     12433 MEMB     100      POPE     H8Y      HAL2     0.900000E-01   1.00800           0   0.00000     -0.301140E-02
     12434 MEMB     100      POPE     C39      CTL2    -0.180000       12.0110           0   0.00000     -0.301140E-02
     12435 MEMB     100      POPE     H9X      HAL2     0.900000E-01   1.00800           0   0.00000     -0.301140E-02
     12436 MEMB     100      POPE     H9Y      HAL2     0.900000E-01   1.00800           0   0.00000     -0.301140E-02
     12437 MEMB     100      POPE     C310     CTL2    -0.180000       12.0110           0   0.00000     -0.301140E-02
     12438 MEMB     100      POPE     H10X     HAL2     0.900000E-01   1.00800           0   0.00000     -0.301140E-02
     12439 MEMB     100      POPE     H10Y     HAL2     0.900000E-01   1.00800           0   0.00000     -0.301140E-02
     12440 MEMB     100      POPE     C311     CTL2    -0.180000       12.0110           0   0.00000     -0.301140E-02
     12441 MEMB     100      POPE     H11X     HAL2     0.900000E-01   1.00800           0   0.00000     -0.301140E-02
     12442 MEMB     100      POPE     H11Y     HAL2     0.900000E-01   1.00800           0   0.00000     -0.301140E-02
     12443 MEMB     100      POPE     C312     CTL2    -0.180000       12.0110           0   0.00000     -0.301140E-02
     12444 MEMB     100      POPE     H12X     HAL2     0.900000E-01   1.00800           0   0.00000     -0.301140E-02
     12445 MEMB     100      POPE     H12Y     HAL2     0.900000E-01   1.00800           0   0.00000     -0.301140E-02
     12446 MEMB     100      POPE     C313     CTL2    -0.180000       12.0110           0   0.00000     -0.301140E-02
     12447 MEMB     100      POPE     H13X     HAL2     0.900000E-01   1.00800           0   0.00000     -0.301140E-02
     12448 MEMB     100      POPE     H13Y     HAL2     0.900000E-01   1.00800           0   0.00000     -0.301140E-02
     12449 MEMB     100      POPE     C314     CTL2    -0.180000       12.0110           0   0.00000     -0.301140E-02
     12450 MEMB     100      POPE     H14X     HAL2     0.900000E-01   1.00800           0   0.00000     -0.301140E-02
     12451 MEMB     100      POPE     H14Y     HAL2     0.900000E-01   1.00800           0   0.00000     -0.301140E-02
     12452 MEMB     100      POPE     C315     CTL2    -0.180000       12.0110           0   0.00000     -0.301140E-02
     12453 MEMB     100      POPE     H15X     HAL2     0.900000E-01   1.00800           0   0.00000     -0.301140E-02
     12454 MEMB     100      POPE     H15Y     HAL2     0.900000E-01   1.00800           0   0.00000     -0.301140E-02
     12455 MEMB     100      POPE     C316     CTL3    -0.270000       12.0110           0   0.00000     -0.301140E-02
     12456 MEMB     100      POPE     H16X     HAL3     0.900000E-01   1.00800           0   0.00000     -0.301140E-02
     12457 MEMB     100      POPE     H16Y     HAL3     0.900000E-01   1.00800           0   0.00000     -0.301140E-02
     12458 MEMB     100      POPE     H16Z     HAL3     0.900000E-01   1.00800           0   0.00000     -0.301140E-02
     12459 MEMB     101      PMPG     C13      CTL2     0.500000E-01   12.0110           0   0.00000     -0.301140E-02
     12460 MEMB     101      PMPG     H13A     HAL2     0.900000E-01   1.00800           0   0.00000     -0.301140E-02
     12461 MEMB     101      PMPG     H13B     HAL2     0.900000E-01   1.00800           0   0.00000     -0.301140E-02
     12462 MEMB     101      PMPG     OC3      OHL     -0.660000       15.9994           0   0.00000     -0.301140E-02
     12463 MEMB     101      PMPG     HO3      HOL      0.430000       1.00800           0   0.00000     -0.301140E-02
     12464 MEMB     101      PMPG     C12      CTL1     0.140000       12.0110           0   0.00000     -0.301140E-02
     12465 MEMB     101      PMPG     H12A     HAL1     0.900000E-01   1.00800           0   0.00000     -0.301140E-02
     12466 MEMB     101      PMPG     OC2      OHL     -0.660000       15.9994           0   0.00000     -0.301140E-02
     12467 MEMB     101      PMPG     HO2      HOL      0.430000       1.00800           0   0.00000     -0.301140E-02
     12468 MEMB     101      PMPG     C11      CTL2    -0.800000E-01   12.0110           0   0.00000     -0.301140E-02
     12469 MEMB     101      PMPG     H11A     HAL2     0.900000E-01   1.00800           0   0.00000     -0.301140E-02
     12470 MEMB     101      PMPG     H11B     HAL2     0.900000E-01   1.00800           0   0.00000     -0.301140E-02
     12471 MEMB     101      PMPG     P        PL        1.50000       30.9740           0   0.00000     -0.301140E-02
     12472 MEMB     101      PMPG     O13      O2L     -0.780000       15.9994           0   0.00000     -0.301140E-02
     12473 MEMB     101      PMPG     O14      O2L     -0.780000       15.9994           0   0.00000     -0.301140E-02
     12474 MEMB     101      PMPG     O11      OSLP    -0.570000       15.9994           0   0.00000     -0.301140E-02
     12475 MEMB     101      PMPG     O12      OSLP    -0.570000       15.9994           0   0.00000     -0.301140E-02
     12476 MEMB     101      PMPG     C1       CTL2    -0.800000E-01   12.0110           0   0.00000     -0.301140E-02
     12477 MEMB     101      PMPG     HA       HAL2     0.900000E-01   1.00800           0   0.00000     -0.301140E-02
     12478 MEMB     101      PMPG     HB       HAL2     0.900000E-01   1.00800           0   0.00000     -0.301140E-02
     12479 MEMB     101      PMPG     C2       CTL1     0.170000       12.0110           0   0.00000     -0.301140E-02
     12480 MEMB     101      PMPG     HS       HAL1     0.900000E-01   1.00800           0   0.00000     -0.301140E-02
     12481 MEMB     101      PMPG     O21      OSL     -0.490000       15.9994           0   0.00000     -0.301140E-02
     12482 MEMB     101      PMPG     C21      CL       0.900000       12.0110           0   0.00000     -0.301140E-02
     12483 MEMB     101      PMPG     O22      OBL     -0.630000       15.9994           0   0.00000     -0.301140E-02
     12484 MEMB     101      PMPG     C22      CTL2    -0.220000       12.0110           0   0.00000     -0.301140E-02
     12485 MEMB     101      PMPG     H2R      HAL2     0.900000E-01   1.00800           0   0.00000     -0.301140E-02
     12486 MEMB     101      PMPG     H2S      HAL2     0.900000E-01   1.00800           0   0.00000     -0.301140E-02
     12487 MEMB     101      PMPG     C3       CTL2     0.800000E-01   12.0110           0   0.00000     -0.301140E-02
     12488 MEMB     101      PMPG     HX       HAL2     0.900000E-01   1.00800           0   0.00000     -0.301140E-02
     12489 MEMB     101      PMPG     HY       HAL2     0.900000E-01   1.00800           0   0.00000     -0.301140E-02
     12490 MEMB     101      PMPG     O31      OSL     -0.490000       15.9994           0   0.00000     -0.301140E-02
     12491 MEMB     101      PMPG     C31      CL       0.900000       12.0110           0   0.00000     -0.301140E-02
     12492 MEMB     101      PMPG     O32      OBL     -0.630000       15.9994           0   0.00000     -0.301140E-02
     12493 MEMB     101      PMPG     C32      CTL2    -0.220000       12.0110           0   0.00000     -0.301140E-02
     12494 MEMB     101      PMPG     H2X      HAL2     0.900000E-01   1.00800           0   0.00000     -0.301140E-02
     12495 MEMB     101      PMPG     H2Y      HAL2     0.900000E-01   1.00800           0   0.00000     -0.301140E-02
     12496 MEMB     101      PMPG     C23      CTL2    -0.180000       12.0110           0   0.00000     -0.301140E-02
     12497 MEMB     101      PMPG     H3R      HAL2     0.900000E-01   1.00800           0   0.00000     -0.301140E-02
     12498 MEMB     101      PMPG     H3S      HAL2     0.900000E-01   1.00800           0   0.00000     -0.301140E-02
     12499 MEMB     101      PMPG     C24      CTL2    -0.180000       12.0110           0   0.00000     -0.301140E-02
     12500 MEMB     101      PMPG     H4R      HAL2     0.900000E-01   1.00800           0   0.00000     -0.301140E-02
     12501 MEMB     101      PMPG     H4S      HAL2     0.900000E-01   1.00800           0   0.00000     -0.301140E-02
     12502 MEMB     101      PMPG     C25      CTL2    -0.180000       12.0110           0   0.00000     -0.301140E-02
     12503 MEMB     101      PMPG     H5R      HAL2     0.900000E-01   1.00800           0   0.00000     -0.301140E-02
     12504 MEMB     101      PMPG     H5S      HAL2     0.900000E-01   1.00800           0   0.00000     -0.301140E-02
     12505 MEMB     101      PMPG     C26      CTL2    -0.180000       12.0110           0   0.00000     -0.301140E-02
     12506 MEMB     101      PMPG     H6R      HAL2     0.900000E-01   1.00800           0   0.00000     -0.301140E-02
     12507 MEMB     101      PMPG     H6S      HAL2     0.900000E-01   1.00800           0   0.00000     -0.301140E-02
     12508 MEMB     101      PMPG     C27      CTL2    -0.180000       12.0110           0   0.00000     -0.301140E-02
     12509 MEMB     101      PMPG     H7R      HAL2     0.900000E-01   1.00800           0   0.00000     -0.301140E-02
     12510 MEMB     101      PMPG     H7S      HAL2     0.900000E-01   1.00800           0   0.00000     -0.301140E-02
     12511 MEMB     101      PMPG     C28      CTL2    -0.180000       12.0110           0   0.00000     -0.301140E-02
     12512 MEMB     101      PMPG     H8R      HAL2     0.900000E-01   1.00800           0   0.00000     -0.301140E-02
     12513 MEMB     101      PMPG     H8S      HAL2     0.900000E-01   1.00800           0   0.00000     -0.301140E-02
     12514 MEMB     101      PMPG     C29      CG3RC1  -0.900000E-01   12.0110           0   0.00000     -0.301140E-02
     12515 MEMB     101      PMPG     H9R      HGA1     0.900000E-01   1.00800           0   0.00000     -0.301140E-02
     12516 MEMB     101      PMPG     C217     CG3C31  -0.180000       12.0110           0   0.00000     -0.301140E-02
     12517 MEMB     101      PMPG     H17R     HGA2     0.900000E-01   1.00800           0   0.00000     -0.301140E-02
     12518 MEMB     101      PMPG     H17S     HGA2     0.900000E-01   1.00800           0   0.00000     -0.301140E-02
     12519 MEMB     101      PMPG     C210     CG3RC1  -0.900000E-01   12.0110           0   0.00000     -0.301140E-02
     12520 MEMB     101      PMPG     H10R     HGA1     0.900000E-01   1.00800           0   0.00000     -0.301140E-02
     12521 MEMB     101      PMPG     C211     CTL2    -0.180000       12.0110           0   0.00000     -0.301140E-02
     12522 MEMB     101      PMPG     H11R     HAL2     0.900000E-01   1.00800           0   0.00000     -0.301140E-02
     12523 MEMB     101      PMPG     H11S     HAL2     0.900000E-01   1.00800           0   0.00000     -0.301140E-02
     12524 MEMB     101      PMPG     C212     CTL2    -0.180000       12.0110           0   0.00000     -0.301140E-02
     12525 MEMB     101      PMPG     H12R     HAL2     0.900000E-01   1.00800           0   0.00000     -0.301140E-02
     12526 MEMB     101      PMPG     H12S     HAL2     0.900000E-01   1.00800           0   0.00000     -0.301140E-02
     12527 MEMB     101      PMPG     C213     CTL2    -0.180000       12.0110           0   0.00000     -0.301140E-02
     12528 MEMB     101      PMPG     H13R     HAL2     0.900000E-01   1.00800           0   0.00000     -0.301140E-02
     12529 MEMB     101      PMPG     H13S     HAL2     0.900000E-01   1.00800           0   0.00000     -0.301140E-02
     12530 MEMB     101      PMPG     C214     CTL2    -0.180000       12.0110           0   0.00000     -0.301140E-02
     12531 MEMB     101      PMPG     H14R     HAL2     0.900000E-01   1.00800           0   0.00000     -0.301140E-02
     12532 MEMB     101      PMPG     H14S     HAL2     0.900000E-01   1.00800           0   0.00000     -0.301140E-02
     12533 MEMB     101      PMPG     C215     CTL2    -0.180000       12.0110           0   0.00000     -0.301140E-02
     12534 MEMB     101      PMPG     H15R     HAL2     0.900000E-01   1.00800           0   0.00000     -0.301140E-02
     12535 MEMB     101      PMPG     H15S     HAL2     0.900000E-01   1.00800           0   0.00000     -0.301140E-02
     12536 MEMB     101      PMPG     C216     CTL3    -0.270000       12.0110           0   0.00000     -0.301140E-02
     12537 MEMB     101      PMPG     H16R     HAL3     0.900000E-01   1.00800           0   0.00000     -0.301140E-02
     12538 MEMB     101      PMPG     H16S     HAL3     0.900000E-01   1.00800           0   0.00000     -0.301140E-02
     12539 MEMB     101      PMPG     H16T     HAL3     0.900000E-01   1.00800           0   0.00000     -0.301140E-02
     12540 MEMB     101      PMPG     C33      CTL2    -0.180000       12.0110           0   0.00000     -0.301140E-02
     12541 MEMB     101      PMPG     H3X      HAL2     0.900000E-01   1.00800           0   0.00000     -0.301140E-02
     12542 MEMB     101      PMPG     H3Y      HAL2     0.900000E-01   1.00800           0   0.00000     -0.301140E-02
     12543 MEMB     101      PMPG     C34      CTL2    -0.180000       12.0110           0   0.00000     -0.301140E-02
     12544 MEMB     101      PMPG     H4X      HAL2     0.900000E-01   1.00800           0   0.00000     -0.301140E-02
     12545 MEMB     101      PMPG     H4Y      HAL2     0.900000E-01   1.00800           0   0.00000     -0.301140E-02
     12546 MEMB     101      PMPG     C35      CTL2    -0.180000       12.0110           0   0.00000     -0.301140E-02
     12547 MEMB     101      PMPG     H5X      HAL2     0.900000E-01   1.00800           0   0.00000     -0.301140E-02
     12548 MEMB     101      PMPG     H5Y      HAL2     0.900000E-01   1.00800           0   0.00000     -0.301140E-02
     12549 MEMB     101      PMPG     C36      CTL2    -0.180000       12.0110           0   0.00000     -0.301140E-02
     12550 MEMB     101      PMPG     H6X      HAL2     0.900000E-01   1.00800           0   0.00000     -0.301140E-02
     12551 MEMB     101      PMPG     H6Y      HAL2     0.900000E-01   1.00800           0   0.00000     -0.301140E-02
     12552 MEMB     101      PMPG     C37      CTL2    -0.180000       12.0110           0   0.00000     -0.301140E-02
     12553 MEMB     101      PMPG     H7X      HAL2     0.900000E-01   1.00800           0   0.00000     -0.301140E-02
     12554 MEMB     101      PMPG     H7Y      HAL2     0.900000E-01   1.00800           0   0.00000     -0.301140E-02
     12555 MEMB     101      PMPG     C38      CTL2    -0.180000       12.0110           0   0.00000     -0.301140E-02
     12556 MEMB     101      PMPG     H8X      HAL2     0.900000E-01   1.00800           0   0.00000     -0.301140E-02
     12557 MEMB     101      PMPG     H8Y      HAL2     0.900000E-01   1.00800           0   0.00000     -0.301140E-02
     12558 MEMB     101      PMPG     C39      CTL2    -0.180000       12.0110           0   0.00000     -0.301140E-02
     12559 MEMB     101      PMPG     H9X      HAL2     0.900000E-01   1.00800           0   0.00000     -0.301140E-02
     12560 MEMB     101      PMPG     H9Y      HAL2     0.900000E-01   1.00800           0   0.00000     -0.301140E-02
     12561 MEMB     101      PMPG     C310     CTL2    -0.180000       12.0110           0   0.00000     -0.301140E-02
     12562 MEMB     101      PMPG     H10X     HAL2     0.900000E-01   1.00800           0   0.00000     -0.301140E-02
     12563 MEMB     101      PMPG     H10Y     HAL2     0.900000E-01   1.00800           0   0.00000     -0.301140E-02
     12564 MEMB     101      PMPG     C311     CTL2    -0.180000       12.0110           0   0.00000     -0.301140E-02
     12565 MEMB     101      PMPG     H11X     HAL2     0.900000E-01   1.00800           0   0.00000     -0.301140E-02
     12566 MEMB     101      PMPG     H11Y     HAL2     0.900000E-01   1.00800           0   0.00000     -0.301140E-02
     12567 MEMB     101      PMPG     C312     CTL2    -0.180000       12.0110           0   0.00000     -0.301140E-02
     12568 MEMB     101      PMPG     H12X     HAL2     0.900000E-01   1.00800           0   0.00000     -0.301140E-02
     12569 MEMB     101      PMPG     H12Y     HAL2     0.900000E-01   1.00800           0   0.00000     -0.301140E-02
     12570 MEMB     101      PMPG     C313     CTL2    -0.180000       12.0110           0   0.00000     -0.301140E-02
     12571 MEMB     101      PMPG     H13X     HAL2     0.900000E-01   1.00800           0   0.00000     -0.301140E-02
     12572 MEMB     101      PMPG     H13Y     HAL2     0.900000E-01   1.00800           0   0.00000     -0.301140E-02
     12573 MEMB     101      PMPG     C314     CTL2    -0.180000       12.0110           0   0.00000     -0.301140E-02
     12574 MEMB     101      PMPG     H14X     HAL2     0.900000E-01   1.00800           0   0.00000     -0.301140E-02
     12575 MEMB     101      PMPG     H14Y     HAL2     0.900000E-01   1.00800           0   0.00000     -0.301140E-02
     12576 MEMB     101      PMPG     C315     CTL2    -0.180000       12.0110           0   0.00000     -0.301140E-02
     12577 MEMB     101      PMPG     H15X     HAL2     0.900000E-01   1.00800           0   0.00000     -0.301140E-02
     12578 MEMB     101      PMPG     H15Y     HAL2     0.900000E-01   1.00800           0   0.00000     -0.301140E-02
     12579 MEMB     101      PMPG     C316     CTL3    -0.270000       12.0110           0   0.00000     -0.301140E-02
     12580 MEMB     101      PMPG     H16X     HAL3     0.900000E-01   1.00800           0   0.00000     -0.301140E-02
     12581 MEMB     101      PMPG     H16Y     HAL3     0.900000E-01   1.00800           0   0.00000     -0.301140E-02
     12582 MEMB     101      PMPG     H16Z     HAL3     0.900000E-01   1.00800           0   0.00000     -0.301140E-02
     12583 MEMB     102      POPE     N        NH3L    -0.300000       14.0070           0   0.00000     -0.301140E-02
     12584 MEMB     102      POPE     HN1      HCL      0.330000       1.00800           0   0.00000     -0.301140E-02
     12585 MEMB     102      POPE     HN2      HCL      0.330000       1.00800           0   0.00000     -0.301140E-02
     12586 MEMB     102      POPE     HN3      HCL      0.330000       1.00800           0   0.00000     -0.301140E-02
     12587 MEMB     102      POPE     C12      CTL2     0.130000       12.0110           0   0.00000     -0.301140E-02
     12588 MEMB     102      POPE     H12A     HAL2     0.900000E-01   1.00800           0   0.00000     -0.301140E-02
     12589 MEMB     102      POPE     H12B     HAL2     0.900000E-01   1.00800           0   0.00000     -0.301140E-02
     12590 MEMB     102      POPE     C11      CTL2    -0.800000E-01   12.0110           0   0.00000     -0.301140E-02
     12591 MEMB     102      POPE     H11A     HAL2     0.900000E-01   1.00800           0   0.00000     -0.301140E-02
     12592 MEMB     102      POPE     H11B     HAL2     0.900000E-01   1.00800           0   0.00000     -0.301140E-02
     12593 MEMB     102      POPE     P        PL        1.50000       30.9740           0   0.00000     -0.301140E-02
     12594 MEMB     102      POPE     O13      O2L     -0.780000       15.9994           0   0.00000     -0.301140E-02
     12595 MEMB     102      POPE     O14      O2L     -0.780000       15.9994           0   0.00000     -0.301140E-02
     12596 MEMB     102      POPE     O11      OSLP    -0.570000       15.9994           0   0.00000     -0.301140E-02
     12597 MEMB     102      POPE     O12      OSLP    -0.570000       15.9994           0   0.00000     -0.301140E-02
     12598 MEMB     102      POPE     C1       CTL2    -0.800000E-01   12.0110           0   0.00000     -0.301140E-02
     12599 MEMB     102      POPE     HA       HAL2     0.900000E-01   1.00800           0   0.00000     -0.301140E-02
     12600 MEMB     102      POPE     HB       HAL2     0.900000E-01   1.00800           0   0.00000     -0.301140E-02
     12601 MEMB     102      POPE     C2       CTL1     0.170000       12.0110           0   0.00000     -0.301140E-02
     12602 MEMB     102      POPE     HS       HAL1     0.900000E-01   1.00800           0   0.00000     -0.301140E-02
     12603 MEMB     102      POPE     O21      OSL     -0.490000       15.9994           0   0.00000     -0.301140E-02
     12604 MEMB     102      POPE     C21      CL       0.900000       12.0110           0   0.00000     -0.301140E-02
     12605 MEMB     102      POPE     O22      OBL     -0.630000       15.9994           0   0.00000     -0.301140E-02
     12606 MEMB     102      POPE     C22      CTL2    -0.220000       12.0110           0   0.00000     -0.301140E-02
     12607 MEMB     102      POPE     H2R      HAL2     0.900000E-01   1.00800           0   0.00000     -0.301140E-02
     12608 MEMB     102      POPE     H2S      HAL2     0.900000E-01   1.00800           0   0.00000     -0.301140E-02
     12609 MEMB     102      POPE     C3       CTL2     0.800000E-01   12.0110           0   0.00000     -0.301140E-02
     12610 MEMB     102      POPE     HX       HAL2     0.900000E-01   1.00800           0   0.00000     -0.301140E-02
     12611 MEMB     102      POPE     HY       HAL2     0.900000E-01   1.00800           0   0.00000     -0.301140E-02
     12612 MEMB     102      POPE     O31      OSL     -0.490000       15.9994           0   0.00000     -0.301140E-02
     12613 MEMB     102      POPE     C31      CL       0.900000       12.0110           0   0.00000     -0.301140E-02
     12614 MEMB     102      POPE     O32      OBL     -0.630000       15.9994           0   0.00000     -0.301140E-02
     12615 MEMB     102      POPE     C32      CTL2    -0.220000       12.0110           0   0.00000     -0.301140E-02
     12616 MEMB     102      POPE     H2X      HAL2     0.900000E-01   1.00800           0   0.00000     -0.301140E-02
     12617 MEMB     102      POPE     H2Y      HAL2     0.900000E-01   1.00800           0   0.00000     -0.301140E-02
     12618 MEMB     102      POPE     C23      CTL2    -0.180000       12.0110           0   0.00000     -0.301140E-02
     12619 MEMB     102      POPE     H3R      HAL2     0.900000E-01   1.00800           0   0.00000     -0.301140E-02
     12620 MEMB     102      POPE     H3S      HAL2     0.900000E-01   1.00800           0   0.00000     -0.301140E-02
     12621 MEMB     102      POPE     C24      CTL2    -0.180000       12.0110           0   0.00000     -0.301140E-02
     12622 MEMB     102      POPE     H4R      HAL2     0.900000E-01   1.00800           0   0.00000     -0.301140E-02
     12623 MEMB     102      POPE     H4S      HAL2     0.900000E-01   1.00800           0   0.00000     -0.301140E-02
     12624 MEMB     102      POPE     C25      CTL2    -0.180000       12.0110           0   0.00000     -0.301140E-02
     12625 MEMB     102      POPE     H5R      HAL2     0.900000E-01   1.00800           0   0.00000     -0.301140E-02
     12626 MEMB     102      POPE     H5S      HAL2     0.900000E-01   1.00800           0   0.00000     -0.301140E-02
     12627 MEMB     102      POPE     C26      CTL2    -0.180000       12.0110           0   0.00000     -0.301140E-02
     12628 MEMB     102      POPE     H6R      HAL2     0.900000E-01   1.00800           0   0.00000     -0.301140E-02
     12629 MEMB     102      POPE     H6S      HAL2     0.900000E-01   1.00800           0   0.00000     -0.301140E-02
     12630 MEMB     102      POPE     C27      CTL2    -0.180000       12.0110           0   0.00000     -0.301140E-02
     12631 MEMB     102      POPE     H7R      HAL2     0.900000E-01   1.00800           0   0.00000     -0.301140E-02
     12632 MEMB     102      POPE     H7S      HAL2     0.900000E-01   1.00800           0   0.00000     -0.301140E-02
     12633 MEMB     102      POPE     C28      CTL2    -0.180000       12.0110           0   0.00000     -0.301140E-02
     12634 MEMB     102      POPE     H8R      HAL2     0.900000E-01   1.00800           0   0.00000     -0.301140E-02
     12635 MEMB     102      POPE     H8S      HAL2     0.900000E-01   1.00800           0   0.00000     -0.301140E-02
     12636 MEMB     102      POPE     C29      CEL1    -0.150000       12.0110           0   0.00000     -0.301140E-02
     12637 MEMB     102      POPE     H91      HEL1     0.150000       1.00800           0   0.00000     -0.301140E-02
     12638 MEMB     102      POPE     C210     CEL1    -0.150000       12.0110           0   0.00000     -0.301140E-02
     12639 MEMB     102      POPE     H101     HEL1     0.150000       1.00800           0   0.00000     -0.301140E-02
     12640 MEMB     102      POPE     C211     CTL2    -0.180000       12.0110           0   0.00000     -0.301140E-02
     12641 MEMB     102      POPE     H11R     HAL2     0.900000E-01   1.00800           0   0.00000     -0.301140E-02
     12642 MEMB     102      POPE     H11S     HAL2     0.900000E-01   1.00800           0   0.00000     -0.301140E-02
     12643 MEMB     102      POPE     C212     CTL2    -0.180000       12.0110           0   0.00000     -0.301140E-02
     12644 MEMB     102      POPE     H12R     HAL2     0.900000E-01   1.00800           0   0.00000     -0.301140E-02
     12645 MEMB     102      POPE     H12S     HAL2     0.900000E-01   1.00800           0   0.00000     -0.301140E-02
     12646 MEMB     102      POPE     C213     CTL2    -0.180000       12.0110           0   0.00000     -0.301140E-02
     12647 MEMB     102      POPE     H13R     HAL2     0.900000E-01   1.00800           0   0.00000     -0.301140E-02
     12648 MEMB     102      POPE     H13S     HAL2     0.900000E-01   1.00800           0   0.00000     -0.301140E-02
     12649 MEMB     102      POPE     C214     CTL2    -0.180000       12.0110           0   0.00000     -0.301140E-02
     12650 MEMB     102      POPE     H14R     HAL2     0.900000E-01   1.00800           0   0.00000     -0.301140E-02
     12651 MEMB     102      POPE     H14S     HAL2     0.900000E-01   1.00800           0   0.00000     -0.301140E-02
     12652 MEMB     102      POPE     C215     CTL2    -0.180000       12.0110           0   0.00000     -0.301140E-02
     12653 MEMB     102      POPE     H15R     HAL2     0.900000E-01   1.00800           0   0.00000     -0.301140E-02
     12654 MEMB     102      POPE     H15S     HAL2     0.900000E-01   1.00800           0   0.00000     -0.301140E-02
     12655 MEMB     102      POPE     C216     CTL2    -0.180000       12.0110           0   0.00000     -0.301140E-02
     12656 MEMB     102      POPE     H16R     HAL2     0.900000E-01   1.00800           0   0.00000     -0.301140E-02
     12657 MEMB     102      POPE     H16S     HAL2     0.900000E-01   1.00800           0   0.00000     -0.301140E-02
     12658 MEMB     102      POPE     C217     CTL2    -0.180000       12.0110           0   0.00000     -0.301140E-02
     12659 MEMB     102      POPE     H17R     HAL2     0.900000E-01   1.00800           0   0.00000     -0.301140E-02
     12660 MEMB     102      POPE     H17S     HAL2     0.900000E-01   1.00800           0   0.00000     -0.301140E-02
     12661 MEMB     102      POPE     C218     CTL3    -0.270000       12.0110           0   0.00000     -0.301140E-02
     12662 MEMB     102      POPE     H18R     HAL3     0.900000E-01   1.00800           0   0.00000     -0.301140E-02
     12663 MEMB     102      POPE     H18S     HAL3     0.900000E-01   1.00800           0   0.00000     -0.301140E-02
     12664 MEMB     102      POPE     H18T     HAL3     0.900000E-01   1.00800           0   0.00000     -0.301140E-02
     12665 MEMB     102      POPE     C33      CTL2    -0.180000       12.0110           0   0.00000     -0.301140E-02
     12666 MEMB     102      POPE     H3X      HAL2     0.900000E-01   1.00800           0   0.00000     -0.301140E-02
     12667 MEMB     102      POPE     H3Y      HAL2     0.900000E-01   1.00800           0   0.00000     -0.301140E-02
     12668 MEMB     102      POPE     C34      CTL2    -0.180000       12.0110           0   0.00000     -0.301140E-02
     12669 MEMB     102      POPE     H4X      HAL2     0.900000E-01   1.00800           0   0.00000     -0.301140E-02
     12670 MEMB     102      POPE     H4Y      HAL2     0.900000E-01   1.00800           0   0.00000     -0.301140E-02
     12671 MEMB     102      POPE     C35      CTL2    -0.180000       12.0110           0   0.00000     -0.301140E-02
     12672 MEMB     102      POPE     H5X      HAL2     0.900000E-01   1.00800           0   0.00000     -0.301140E-02
     12673 MEMB     102      POPE     H5Y      HAL2     0.900000E-01   1.00800           0   0.00000     -0.301140E-02
     12674 MEMB     102      POPE     C36      CTL2    -0.180000       12.0110           0   0.00000     -0.301140E-02
     12675 MEMB     102      POPE     H6X      HAL2     0.900000E-01   1.00800           0   0.00000     -0.301140E-02
     12676 MEMB     102      POPE     H6Y      HAL2     0.900000E-01   1.00800           0   0.00000     -0.301140E-02
     12677 MEMB     102      POPE     C37      CTL2    -0.180000       12.0110           0   0.00000     -0.301140E-02
     12678 MEMB     102      POPE     H7X      HAL2     0.900000E-01   1.00800           0   0.00000     -0.301140E-02
     12679 MEMB     102      POPE     H7Y      HAL2     0.900000E-01   1.00800           0   0.00000     -0.301140E-02
     12680 MEMB     102      POPE     C38      CTL2    -0.180000       12.0110           0   0.00000     -0.301140E-02
     12681 MEMB     102      POPE     H8X      HAL2     0.900000E-01   1.00800           0   0.00000     -0.301140E-02
     12682 MEMB     102      POPE     H8Y      HAL2     0.900000E-01   1.00800           0   0.00000     -0.301140E-02
     12683 MEMB     102      POPE     C39      CTL2    -0.180000       12.0110           0   0.00000     -0.301140E-02
     12684 MEMB     102      POPE     H9X      HAL2     0.900000E-01   1.00800           0   0.00000     -0.301140E-02
     12685 MEMB     102      POPE     H9Y      HAL2     0.900000E-01   1.00800           0   0.00000     -0.301140E-02
     12686 MEMB     102      POPE     C310     CTL2    -0.180000       12.0110           0   0.00000     -0.301140E-02
     12687 MEMB     102      POPE     H10X     HAL2     0.900000E-01   1.00800           0   0.00000     -0.301140E-02
     12688 MEMB     102      POPE     H10Y     HAL2     0.900000E-01   1.00800           0   0.00000     -0.301140E-02
     12689 MEMB     102      POPE     C311     CTL2    -0.180000       12.0110           0   0.00000     -0.301140E-02
     12690 MEMB     102      POPE     H11X     HAL2     0.900000E-01   1.00800           0   0.00000     -0.301140E-02
     12691 MEMB     102      POPE     H11Y     HAL2     0.900000E-01   1.00800           0   0.00000     -0.301140E-02
     12692 MEMB     102      POPE     C312     CTL2    -0.180000       12.0110           0   0.00000     -0.301140E-02
     12693 MEMB     102      POPE     H12X     HAL2     0.900000E-01   1.00800           0   0.00000     -0.301140E-02
     12694 MEMB     102      POPE     H12Y     HAL2     0.900000E-01   1.00800           0   0.00000     -0.301140E-02
     12695 MEMB     102      POPE     C313     CTL2    -0.180000       12.0110           0   0.00000     -0.301140E-02
     12696 MEMB     102      POPE     H13X     HAL2     0.900000E-01   1.00800           0   0.00000     -0.301140E-02
     12697 MEMB     102      POPE     H13Y     HAL2     0.900000E-01   1.00800           0   0.00000     -0.301140E-02
     12698 MEMB     102      POPE     C314     CTL2    -0.180000       12.0110           0   0.00000     -0.301140E-02
     12699 MEMB     102      POPE     H14X     HAL2     0.900000E-01   1.00800           0   0.00000     -0.301140E-02
     12700 MEMB     102      POPE     H14Y     HAL2     0.900000E-01   1.00800           0   0.00000     -0.301140E-02
     12701 MEMB     102      POPE     C315     CTL2    -0.180000       12.0110           0   0.00000     -0.301140E-02
     12702 MEMB     102      POPE     H15X     HAL2     0.900000E-01   1.00800           0   0.00000     -0.301140E-02
     12703 MEMB     102      POPE     H15Y     HAL2     0.900000E-01   1.00800           0   0.00000     -0.301140E-02
     12704 MEMB     102      POPE     C316     CTL3    -0.270000       12.0110           0   0.00000     -0.301140E-02
     12705 MEMB     102      POPE     H16X     HAL3     0.900000E-01   1.00800           0   0.00000     -0.301140E-02
     12706 MEMB     102      POPE     H16Y     HAL3     0.900000E-01   1.00800           0   0.00000     -0.301140E-02
     12707 MEMB     102      POPE     H16Z     HAL3     0.900000E-01   1.00800           0   0.00000     -0.301140E-02
     12708 MEMB     103      PMPE     N        NH3L    -0.300000       14.0070           0   0.00000     -0.301140E-02
     12709 MEMB     103      PMPE     HN1      HCL      0.330000       1.00800           0   0.00000     -0.301140E-02
     12710 MEMB     103      PMPE     HN2      HCL      0.330000       1.00800           0   0.00000     -0.301140E-02
     12711 MEMB     103      PMPE     HN3      HCL      0.330000       1.00800           0   0.00000     -0.301140E-02
     12712 MEMB     103      PMPE     C12      CTL2     0.130000       12.0110           0   0.00000     -0.301140E-02
     12713 MEMB     103      PMPE     H12A     HAL2     0.900000E-01   1.00800           0   0.00000     -0.301140E-02
     12714 MEMB     103      PMPE     H12B     HAL2     0.900000E-01   1.00800           0   0.00000     -0.301140E-02
     12715 MEMB     103      PMPE     C11      CTL2    -0.800000E-01   12.0110           0   0.00000     -0.301140E-02
     12716 MEMB     103      PMPE     H11A     HAL2     0.900000E-01   1.00800           0   0.00000     -0.301140E-02
     12717 MEMB     103      PMPE     H11B     HAL2     0.900000E-01   1.00800           0   0.00000     -0.301140E-02
     12718 MEMB     103      PMPE     P        PL        1.50000       30.9740           0   0.00000     -0.301140E-02
     12719 MEMB     103      PMPE     O13      O2L     -0.780000       15.9994           0   0.00000     -0.301140E-02
     12720 MEMB     103      PMPE     O14      O2L     -0.780000       15.9994           0   0.00000     -0.301140E-02
     12721 MEMB     103      PMPE     O11      OSLP    -0.570000       15.9994           0   0.00000     -0.301140E-02
     12722 MEMB     103      PMPE     O12      OSLP    -0.570000       15.9994           0   0.00000     -0.301140E-02
     12723 MEMB     103      PMPE     C1       CTL2    -0.800000E-01   12.0110           0   0.00000     -0.301140E-02
     12724 MEMB     103      PMPE     HA       HAL2     0.900000E-01   1.00800           0   0.00000     -0.301140E-02
     12725 MEMB     103      PMPE     HB       HAL2     0.900000E-01   1.00800           0   0.00000     -0.301140E-02
     12726 MEMB     103      PMPE     C2       CTL1     0.170000       12.0110           0   0.00000     -0.301140E-02
     12727 MEMB     103      PMPE     HS       HAL1     0.900000E-01   1.00800           0   0.00000     -0.301140E-02
     12728 MEMB     103      PMPE     O21      OSL     -0.490000       15.9994           0   0.00000     -0.301140E-02
     12729 MEMB     103      PMPE     C21      CL       0.900000       12.0110           0   0.00000     -0.301140E-02
     12730 MEMB     103      PMPE     O22      OBL     -0.630000       15.9994           0   0.00000     -0.301140E-02
     12731 MEMB     103      PMPE     C22      CTL2    -0.220000       12.0110           0   0.00000     -0.301140E-02
     12732 MEMB     103      PMPE     H2R      HAL2     0.900000E-01   1.00800           0   0.00000     -0.301140E-02
     12733 MEMB     103      PMPE     H2S      HAL2     0.900000E-01   1.00800           0   0.00000     -0.301140E-02
     12734 MEMB     103      PMPE     C3       CTL2     0.800000E-01   12.0110           0   0.00000     -0.301140E-02
     12735 MEMB     103      PMPE     HX       HAL2     0.900000E-01   1.00800           0   0.00000     -0.301140E-02
     12736 MEMB     103      PMPE     HY       HAL2     0.900000E-01   1.00800           0   0.00000     -0.301140E-02
     12737 MEMB     103      PMPE     O31      OSL     -0.490000       15.9994           0   0.00000     -0.301140E-02
     12738 MEMB     103      PMPE     C31      CL       0.900000       12.0110           0   0.00000     -0.301140E-02
     12739 MEMB     103      PMPE     O32      OBL     -0.630000       15.9994           0   0.00000     -0.301140E-02
     12740 MEMB     103      PMPE     C32      CTL2    -0.220000       12.0110           0   0.00000     -0.301140E-02
     12741 MEMB     103      PMPE     H2X      HAL2     0.900000E-01   1.00800           0   0.00000     -0.301140E-02
     12742 MEMB     103      PMPE     H2Y      HAL2     0.900000E-01   1.00800           0   0.00000     -0.301140E-02
     12743 MEMB     103      PMPE     C23      CTL2    -0.180000       12.0110           0   0.00000     -0.301140E-02
     12744 MEMB     103      PMPE     H3R      HAL2     0.900000E-01   1.00800           0   0.00000     -0.301140E-02
     12745 MEMB     103      PMPE     H3S      HAL2     0.900000E-01   1.00800           0   0.00000     -0.301140E-02
     12746 MEMB     103      PMPE     C24      CTL2    -0.180000       12.0110           0   0.00000     -0.301140E-02
     12747 MEMB     103      PMPE     H4R      HAL2     0.900000E-01   1.00800           0   0.00000     -0.301140E-02
     12748 MEMB     103      PMPE     H4S      HAL2     0.900000E-01   1.00800           0   0.00000     -0.301140E-02
     12749 MEMB     103      PMPE     C25      CTL2    -0.180000       12.0110           0   0.00000     -0.301140E-02
     12750 MEMB     103      PMPE     H5R      HAL2     0.900000E-01   1.00800           0   0.00000     -0.301140E-02
     12751 MEMB     103      PMPE     H5S      HAL2     0.900000E-01   1.00800           0   0.00000     -0.301140E-02
     12752 MEMB     103      PMPE     C26      CTL2    -0.180000       12.0110           0   0.00000     -0.301140E-02
     12753 MEMB     103      PMPE     H6R      HAL2     0.900000E-01   1.00800           0   0.00000     -0.301140E-02
     12754 MEMB     103      PMPE     H6S      HAL2     0.900000E-01   1.00800           0   0.00000     -0.301140E-02
     12755 MEMB     103      PMPE     C27      CTL2    -0.180000       12.0110           0   0.00000     -0.301140E-02
     12756 MEMB     103      PMPE     H7R      HAL2     0.900000E-01   1.00800           0   0.00000     -0.301140E-02
     12757 MEMB     103      PMPE     H7S      HAL2     0.900000E-01   1.00800           0   0.00000     -0.301140E-02
     12758 MEMB     103      PMPE     C28      CTL2    -0.180000       12.0110           0   0.00000     -0.301140E-02
     12759 MEMB     103      PMPE     H8R      HAL2     0.900000E-01   1.00800           0   0.00000     -0.301140E-02
     12760 MEMB     103      PMPE     H8S      HAL2     0.900000E-01   1.00800           0   0.00000     -0.301140E-02
     12761 MEMB     103      PMPE     C29      CG3RC1  -0.900000E-01   12.0110           0   0.00000     -0.301140E-02
     12762 MEMB     103      PMPE     H9R      HGA1     0.900000E-01   1.00800           0   0.00000     -0.301140E-02
     12763 MEMB     103      PMPE     C217     CG3C31  -0.180000       12.0110           0   0.00000     -0.301140E-02
     12764 MEMB     103      PMPE     H17R     HGA2     0.900000E-01   1.00800           0   0.00000     -0.301140E-02
     12765 MEMB     103      PMPE     H17S     HGA2     0.900000E-01   1.00800           0   0.00000     -0.301140E-02
     12766 MEMB     103      PMPE     C210     CG3RC1  -0.900000E-01   12.0110           0   0.00000     -0.301140E-02
     12767 MEMB     103      PMPE     H10R     HGA1     0.900000E-01   1.00800           0   0.00000     -0.301140E-02
     12768 MEMB     103      PMPE     C211     CTL2    -0.180000       12.0110           0   0.00000     -0.301140E-02
     12769 MEMB     103      PMPE     H11R     HAL2     0.900000E-01   1.00800           0   0.00000     -0.301140E-02
     12770 MEMB     103      PMPE     H11S     HAL2     0.900000E-01   1.00800           0   0.00000     -0.301140E-02
     12771 MEMB     103      PMPE     C212     CTL2    -0.180000       12.0110           0   0.00000     -0.301140E-02
     12772 MEMB     103      PMPE     H12R     HAL2     0.900000E-01   1.00800           0   0.00000     -0.301140E-02
     12773 MEMB     103      PMPE     H12S     HAL2     0.900000E-01   1.00800           0   0.00000     -0.301140E-02
     12774 MEMB     103      PMPE     C213     CTL2    -0.180000       12.0110           0   0.00000     -0.301140E-02
     12775 MEMB     103      PMPE     H13R     HAL2     0.900000E-01   1.00800           0   0.00000     -0.301140E-02
     12776 MEMB     103      PMPE     H13S     HAL2     0.900000E-01   1.00800           0   0.00000     -0.301140E-02
     12777 MEMB     103      PMPE     C214     CTL2    -0.180000       12.0110           0   0.00000     -0.301140E-02
     12778 MEMB     103      PMPE     H14R     HAL2     0.900000E-01   1.00800           0   0.00000     -0.301140E-02
     12779 MEMB     103      PMPE     H14S     HAL2     0.900000E-01   1.00800           0   0.00000     -0.301140E-02
     12780 MEMB     103      PMPE     C215     CTL2    -0.180000       12.0110           0   0.00000     -0.301140E-02
     12781 MEMB     103      PMPE     H15R     HAL2     0.900000E-01   1.00800           0   0.00000     -0.301140E-02
     12782 MEMB     103      PMPE     H15S     HAL2     0.900000E-01   1.00800           0   0.00000     -0.301140E-02
     12783 MEMB     103      PMPE     C216     CTL3    -0.270000       12.0110           0   0.00000     -0.301140E-02
     12784 MEMB     103      PMPE     H16R     HAL3     0.900000E-01   1.00800           0   0.00000     -0.301140E-02
     12785 MEMB     103      PMPE     H16S     HAL3     0.900000E-01   1.00800           0   0.00000     -0.301140E-02
     12786 MEMB     103      PMPE     H16T     HAL3     0.900000E-01   1.00800           0   0.00000     -0.301140E-02
     12787 MEMB     103      PMPE     C33      CTL2    -0.180000       12.0110           0   0.00000     -0.301140E-02
     12788 MEMB     103      PMPE     H3X      HAL2     0.900000E-01   1.00800           0   0.00000     -0.301140E-02
     12789 MEMB     103      PMPE     H3Y      HAL2     0.900000E-01   1.00800           0   0.00000     -0.301140E-02
     12790 MEMB     103      PMPE     C34      CTL2    -0.180000       12.0110           0   0.00000     -0.301140E-02
     12791 MEMB     103      PMPE     H4X      HAL2     0.900000E-01   1.00800           0   0.00000     -0.301140E-02
     12792 MEMB     103      PMPE     H4Y      HAL2     0.900000E-01   1.00800           0   0.00000     -0.301140E-02
     12793 MEMB     103      PMPE     C35      CTL2    -0.180000       12.0110           0   0.00000     -0.301140E-02
     12794 MEMB     103      PMPE     H5X      HAL2     0.900000E-01   1.00800           0   0.00000     -0.301140E-02
     12795 MEMB     103      PMPE     H5Y      HAL2     0.900000E-01   1.00800           0   0.00000     -0.301140E-02
     12796 MEMB     103      PMPE     C36      CTL2    -0.180000       12.0110           0   0.00000     -0.301140E-02
     12797 MEMB     103      PMPE     H6X      HAL2     0.900000E-01   1.00800           0   0.00000     -0.301140E-02
     12798 MEMB     103      PMPE     H6Y      HAL2     0.900000E-01   1.00800           0   0.00000     -0.301140E-02
     12799 MEMB     103      PMPE     C37      CTL2    -0.180000       12.0110           0   0.00000     -0.301140E-02
     12800 MEMB     103      PMPE     H7X      HAL2     0.900000E-01   1.00800           0   0.00000     -0.301140E-02
     12801 MEMB     103      PMPE     H7Y      HAL2     0.900000E-01   1.00800           0   0.00000     -0.301140E-02
     12802 MEMB     103      PMPE     C38      CTL2    -0.180000       12.0110           0   0.00000     -0.301140E-02
     12803 MEMB     103      PMPE     H8X      HAL2     0.900000E-01   1.00800           0   0.00000     -0.301140E-02
     12804 MEMB     103      PMPE     H8Y      HAL2     0.900000E-01   1.00800           0   0.00000     -0.301140E-02
     12805 MEMB     103      PMPE     C39      CTL2    -0.180000       12.0110           0   0.00000     -0.301140E-02
     12806 MEMB     103      PMPE     H9X      HAL2     0.900000E-01   1.00800           0   0.00000     -0.301140E-02
     12807 MEMB     103      PMPE     H9Y      HAL2     0.900000E-01   1.00800           0   0.00000     -0.301140E-02
     12808 MEMB     103      PMPE     C310     CTL2    -0.180000       12.0110           0   0.00000     -0.301140E-02
     12809 MEMB     103      PMPE     H10X     HAL2     0.900000E-01   1.00800           0   0.00000     -0.301140E-02
     12810 MEMB     103      PMPE     H10Y     HAL2     0.900000E-01   1.00800           0   0.00000     -0.301140E-02
     12811 MEMB     103      PMPE     C311     CTL2    -0.180000       12.0110           0   0.00000     -0.301140E-02
     12812 MEMB     103      PMPE     H11X     HAL2     0.900000E-01   1.00800           0   0.00000     -0.301140E-02
     12813 MEMB     103      PMPE     H11Y     HAL2     0.900000E-01   1.00800           0   0.00000     -0.301140E-02
     12814 MEMB     103      PMPE     C312     CTL2    -0.180000       12.0110           0   0.00000     -0.301140E-02
     12815 MEMB     103      PMPE     H12X     HAL2     0.900000E-01   1.00800           0   0.00000     -0.301140E-02
     12816 MEMB     103      PMPE     H12Y     HAL2     0.900000E-01   1.00800           0   0.00000     -0.301140E-02
     12817 MEMB     103      PMPE     C313     CTL2    -0.180000       12.0110           0   0.00000     -0.301140E-02
     12818 MEMB     103      PMPE     H13X     HAL2     0.900000E-01   1.00800           0   0.00000     -0.301140E-02
     12819 MEMB     103      PMPE     H13Y     HAL2     0.900000E-01   1.00800           0   0.00000     -0.301140E-02
     12820 MEMB     103      PMPE     C314     CTL2    -0.180000       12.0110           0   0.00000     -0.301140E-02
     12821 MEMB     103      PMPE     H14X     HAL2     0.900000E-01   1.00800           0   0.00000     -0.301140E-02
     12822 MEMB     103      PMPE     H14Y     HAL2     0.900000E-01   1.00800           0   0.00000     -0.301140E-02
     12823 MEMB     103      PMPE     C315     CTL2    -0.180000       12.0110           0   0.00000     -0.301140E-02
     12824 MEMB     103      PMPE     H15X     HAL2     0.900000E-01   1.00800           0   0.00000     -0.301140E-02
     12825 MEMB     103      PMPE     H15Y     HAL2     0.900000E-01   1.00800           0   0.00000     -0.301140E-02
     12826 MEMB     103      PMPE     C316     CTL3    -0.270000       12.0110           0   0.00000     -0.301140E-02
     12827 MEMB     103      PMPE     H16X     HAL3     0.900000E-01   1.00800           0   0.00000     -0.301140E-02
     12828 MEMB     103      PMPE     H16Y     HAL3     0.900000E-01   1.00800           0   0.00000     -0.301140E-02
     12829 MEMB     103      PMPE     H16Z     HAL3     0.900000E-01   1.00800           0   0.00000     -0.301140E-02
     12830 MEMB     104      PMPE     N        NH3L    -0.300000       14.0070           0   0.00000     -0.301140E-02
     12831 MEMB     104      PMPE     HN1      HCL      0.330000       1.00800           0   0.00000     -0.301140E-02
     12832 MEMB     104      PMPE     HN2      HCL      0.330000       1.00800           0   0.00000     -0.301140E-02
     12833 MEMB     104      PMPE     HN3      HCL      0.330000       1.00800           0   0.00000     -0.301140E-02
     12834 MEMB     104      PMPE     C12      CTL2     0.130000       12.0110           0   0.00000     -0.301140E-02
     12835 MEMB     104      PMPE     H12A     HAL2     0.900000E-01   1.00800           0   0.00000     -0.301140E-02
     12836 MEMB     104      PMPE     H12B     HAL2     0.900000E-01   1.00800           0   0.00000     -0.301140E-02
     12837 MEMB     104      PMPE     C11      CTL2    -0.800000E-01   12.0110           0   0.00000     -0.301140E-02
     12838 MEMB     104      PMPE     H11A     HAL2     0.900000E-01   1.00800           0   0.00000     -0.301140E-02
     12839 MEMB     104      PMPE     H11B     HAL2     0.900000E-01   1.00800           0   0.00000     -0.301140E-02
     12840 MEMB     104      PMPE     P        PL        1.50000       30.9740           0   0.00000     -0.301140E-02
     12841 MEMB     104      PMPE     O13      O2L     -0.780000       15.9994           0   0.00000     -0.301140E-02
     12842 MEMB     104      PMPE     O14      O2L     -0.780000       15.9994           0   0.00000     -0.301140E-02
     12843 MEMB     104      PMPE     O11      OSLP    -0.570000       15.9994           0   0.00000     -0.301140E-02
     12844 MEMB     104      PMPE     O12      OSLP    -0.570000       15.9994           0   0.00000     -0.301140E-02
     12845 MEMB     104      PMPE     C1       CTL2    -0.800000E-01   12.0110           0   0.00000     -0.301140E-02
     12846 MEMB     104      PMPE     HA       HAL2     0.900000E-01   1.00800           0   0.00000     -0.301140E-02
     12847 MEMB     104      PMPE     HB       HAL2     0.900000E-01   1.00800           0   0.00000     -0.301140E-02
     12848 MEMB     104      PMPE     C2       CTL1     0.170000       12.0110           0   0.00000     -0.301140E-02
     12849 MEMB     104      PMPE     HS       HAL1     0.900000E-01   1.00800           0   0.00000     -0.301140E-02
     12850 MEMB     104      PMPE     O21      OSL     -0.490000       15.9994           0   0.00000     -0.301140E-02
     12851 MEMB     104      PMPE     C21      CL       0.900000       12.0110           0   0.00000     -0.301140E-02
     12852 MEMB     104      PMPE     O22      OBL     -0.630000       15.9994           0   0.00000     -0.301140E-02
     12853 MEMB     104      PMPE     C22      CTL2    -0.220000       12.0110           0   0.00000     -0.301140E-02
     12854 MEMB     104      PMPE     H2R      HAL2     0.900000E-01   1.00800           0   0.00000     -0.301140E-02
     12855 MEMB     104      PMPE     H2S      HAL2     0.900000E-01   1.00800           0   0.00000     -0.301140E-02
     12856 MEMB     104      PMPE     C3       CTL2     0.800000E-01   12.0110           0   0.00000     -0.301140E-02
     12857 MEMB     104      PMPE     HX       HAL2     0.900000E-01   1.00800           0   0.00000     -0.301140E-02
     12858 MEMB     104      PMPE     HY       HAL2     0.900000E-01   1.00800           0   0.00000     -0.301140E-02
     12859 MEMB     104      PMPE     O31      OSL     -0.490000       15.9994           0   0.00000     -0.301140E-02
     12860 MEMB     104      PMPE     C31      CL       0.900000       12.0110           0   0.00000     -0.301140E-02
     12861 MEMB     104      PMPE     O32      OBL     -0.630000       15.9994           0   0.00000     -0.301140E-02
     12862 MEMB     104      PMPE     C32      CTL2    -0.220000       12.0110           0   0.00000     -0.301140E-02
     12863 MEMB     104      PMPE     H2X      HAL2     0.900000E-01   1.00800           0   0.00000     -0.301140E-02
     12864 MEMB     104      PMPE     H2Y      HAL2     0.900000E-01   1.00800           0   0.00000     -0.301140E-02
     12865 MEMB     104      PMPE     C23      CTL2    -0.180000       12.0110           0   0.00000     -0.301140E-02
     12866 MEMB     104      PMPE     H3R      HAL2     0.900000E-01   1.00800           0   0.00000     -0.301140E-02
     12867 MEMB     104      PMPE     H3S      HAL2     0.900000E-01   1.00800           0   0.00000     -0.301140E-02
     12868 MEMB     104      PMPE     C24      CTL2    -0.180000       12.0110           0   0.00000     -0.301140E-02
     12869 MEMB     104      PMPE     H4R      HAL2     0.900000E-01   1.00800           0   0.00000     -0.301140E-02
     12870 MEMB     104      PMPE     H4S      HAL2     0.900000E-01   1.00800           0   0.00000     -0.301140E-02
     12871 MEMB     104      PMPE     C25      CTL2    -0.180000       12.0110           0   0.00000     -0.301140E-02
     12872 MEMB     104      PMPE     H5R      HAL2     0.900000E-01   1.00800           0   0.00000     -0.301140E-02
     12873 MEMB     104      PMPE     H5S      HAL2     0.900000E-01   1.00800           0   0.00000     -0.301140E-02
     12874 MEMB     104      PMPE     C26      CTL2    -0.180000       12.0110           0   0.00000     -0.301140E-02
     12875 MEMB     104      PMPE     H6R      HAL2     0.900000E-01   1.00800           0   0.00000     -0.301140E-02
     12876 MEMB     104      PMPE     H6S      HAL2     0.900000E-01   1.00800           0   0.00000     -0.301140E-02
     12877 MEMB     104      PMPE     C27      CTL2    -0.180000       12.0110           0   0.00000     -0.301140E-02
     12878 MEMB     104      PMPE     H7R      HAL2     0.900000E-01   1.00800           0   0.00000     -0.301140E-02
     12879 MEMB     104      PMPE     H7S      HAL2     0.900000E-01   1.00800           0   0.00000     -0.301140E-02
     12880 MEMB     104      PMPE     C28      CTL2    -0.180000       12.0110           0   0.00000     -0.301140E-02
     12881 MEMB     104      PMPE     H8R      HAL2     0.900000E-01   1.00800           0   0.00000     -0.301140E-02
     12882 MEMB     104      PMPE     H8S      HAL2     0.900000E-01   1.00800           0   0.00000     -0.301140E-02
     12883 MEMB     104      PMPE     C29      CG3RC1  -0.900000E-01   12.0110           0   0.00000     -0.301140E-02
     12884 MEMB     104      PMPE     H9R      HGA1     0.900000E-01   1.00800           0   0.00000     -0.301140E-02
     12885 MEMB     104      PMPE     C217     CG3C31  -0.180000       12.0110           0   0.00000     -0.301140E-02
     12886 MEMB     104      PMPE     H17R     HGA2     0.900000E-01   1.00800           0   0.00000     -0.301140E-02
     12887 MEMB     104      PMPE     H17S     HGA2     0.900000E-01   1.00800           0   0.00000     -0.301140E-02
     12888 MEMB     104      PMPE     C210     CG3RC1  -0.900000E-01   12.0110           0   0.00000     -0.301140E-02
     12889 MEMB     104      PMPE     H10R     HGA1     0.900000E-01   1.00800           0   0.00000     -0.301140E-02
     12890 MEMB     104      PMPE     C211     CTL2    -0.180000       12.0110           0   0.00000     -0.301140E-02
     12891 MEMB     104      PMPE     H11R     HAL2     0.900000E-01   1.00800           0   0.00000     -0.301140E-02
     12892 MEMB     104      PMPE     H11S     HAL2     0.900000E-01   1.00800           0   0.00000     -0.301140E-02
     12893 MEMB     104      PMPE     C212     CTL2    -0.180000       12.0110           0   0.00000     -0.301140E-02
     12894 MEMB     104      PMPE     H12R     HAL2     0.900000E-01   1.00800           0   0.00000     -0.301140E-02
     12895 MEMB     104      PMPE     H12S     HAL2     0.900000E-01   1.00800           0   0.00000     -0.301140E-02
     12896 MEMB     104      PMPE     C213     CTL2    -0.180000       12.0110           0   0.00000     -0.301140E-02
     12897 MEMB     104      PMPE     H13R     HAL2     0.900000E-01   1.00800           0   0.00000     -0.301140E-02
     12898 MEMB     104      PMPE     H13S     HAL2     0.900000E-01   1.00800           0   0.00000     -0.301140E-02
     12899 MEMB     104      PMPE     C214     CTL2    -0.180000       12.0110           0   0.00000     -0.301140E-02
     12900 MEMB     104      PMPE     H14R     HAL2     0.900000E-01   1.00800           0   0.00000     -0.301140E-02
     12901 MEMB     104      PMPE     H14S     HAL2     0.900000E-01   1.00800           0   0.00000     -0.301140E-02
     12902 MEMB     104      PMPE     C215     CTL2    -0.180000       12.0110           0   0.00000     -0.301140E-02
     12903 MEMB     104      PMPE     H15R     HAL2     0.900000E-01   1.00800           0   0.00000     -0.301140E-02
     12904 MEMB     104      PMPE     H15S     HAL2     0.900000E-01   1.00800           0   0.00000     -0.301140E-02
     12905 MEMB     104      PMPE     C216     CTL3    -0.270000       12.0110           0   0.00000     -0.301140E-02
     12906 MEMB     104      PMPE     H16R     HAL3     0.900000E-01   1.00800           0   0.00000     -0.301140E-02
     12907 MEMB     104      PMPE     H16S     HAL3     0.900000E-01   1.00800           0   0.00000     -0.301140E-02
     12908 MEMB     104      PMPE     H16T     HAL3     0.900000E-01   1.00800           0   0.00000     -0.301140E-02
     12909 MEMB     104      PMPE     C33      CTL2    -0.180000       12.0110           0   0.00000     -0.301140E-02
     12910 MEMB     104      PMPE     H3X      HAL2     0.900000E-01   1.00800           0   0.00000     -0.301140E-02
     12911 MEMB     104      PMPE     H3Y      HAL2     0.900000E-01   1.00800           0   0.00000     -0.301140E-02
     12912 MEMB     104      PMPE     C34      CTL2    -0.180000       12.0110           0   0.00000     -0.301140E-02
     12913 MEMB     104      PMPE     H4X      HAL2     0.900000E-01   1.00800           0   0.00000     -0.301140E-02
     12914 MEMB     104      PMPE     H4Y      HAL2     0.900000E-01   1.00800           0   0.00000     -0.301140E-02
     12915 MEMB     104      PMPE     C35      CTL2    -0.180000       12.0110           0   0.00000     -0.301140E-02
     12916 MEMB     104      PMPE     H5X      HAL2     0.900000E-01   1.00800           0   0.00000     -0.301140E-02
     12917 MEMB     104      PMPE     H5Y      HAL2     0.900000E-01   1.00800           0   0.00000     -0.301140E-02
     12918 MEMB     104      PMPE     C36      CTL2    -0.180000       12.0110           0   0.00000     -0.301140E-02
     12919 MEMB     104      PMPE     H6X      HAL2     0.900000E-01   1.00800           0   0.00000     -0.301140E-02
     12920 MEMB     104      PMPE     H6Y      HAL2     0.900000E-01   1.00800           0   0.00000     -0.301140E-02
     12921 MEMB     104      PMPE     C37      CTL2    -0.180000       12.0110           0   0.00000     -0.301140E-02
     12922 MEMB     104      PMPE     H7X      HAL2     0.900000E-01   1.00800           0   0.00000     -0.301140E-02
     12923 MEMB     104      PMPE     H7Y      HAL2     0.900000E-01   1.00800           0   0.00000     -0.301140E-02
     12924 MEMB     104      PMPE     C38      CTL2    -0.180000       12.0110           0   0.00000     -0.301140E-02
     12925 MEMB     104      PMPE     H8X      HAL2     0.900000E-01   1.00800           0   0.00000     -0.301140E-02
     12926 MEMB     104      PMPE     H8Y      HAL2     0.900000E-01   1.00800           0   0.00000     -0.301140E-02
     12927 MEMB     104      PMPE     C39      CTL2    -0.180000       12.0110           0   0.00000     -0.301140E-02
     12928 MEMB     104      PMPE     H9X      HAL2     0.900000E-01   1.00800           0   0.00000     -0.301140E-02
     12929 MEMB     104      PMPE     H9Y      HAL2     0.900000E-01   1.00800           0   0.00000     -0.301140E-02
     12930 MEMB     104      PMPE     C310     CTL2    -0.180000       12.0110           0   0.00000     -0.301140E-02
     12931 MEMB     104      PMPE     H10X     HAL2     0.900000E-01   1.00800           0   0.00000     -0.301140E-02
     12932 MEMB     104      PMPE     H10Y     HAL2     0.900000E-01   1.00800           0   0.00000     -0.301140E-02
     12933 MEMB     104      PMPE     C311     CTL2    -0.180000       12.0110           0   0.00000     -0.301140E-02
     12934 MEMB     104      PMPE     H11X     HAL2     0.900000E-01   1.00800           0   0.00000     -0.301140E-02
     12935 MEMB     104      PMPE     H11Y     HAL2     0.900000E-01   1.00800           0   0.00000     -0.301140E-02
     12936 MEMB     104      PMPE     C312     CTL2    -0.180000       12.0110           0   0.00000     -0.301140E-02
     12937 MEMB     104      PMPE     H12X     HAL2     0.900000E-01   1.00800           0   0.00000     -0.301140E-02
     12938 MEMB     104      PMPE     H12Y     HAL2     0.900000E-01   1.00800           0   0.00000     -0.301140E-02
     12939 MEMB     104      PMPE     C313     CTL2    -0.180000       12.0110           0   0.00000     -0.301140E-02
     12940 MEMB     104      PMPE     H13X     HAL2     0.900000E-01   1.00800           0   0.00000     -0.301140E-02
     12941 MEMB     104      PMPE     H13Y     HAL2     0.900000E-01   1.00800           0   0.00000     -0.301140E-02
     12942 MEMB     104      PMPE     C314     CTL2    -0.180000       12.0110           0   0.00000     -0.301140E-02
     12943 MEMB     104      PMPE     H14X     HAL2     0.900000E-01   1.00800           0   0.00000     -0.301140E-02
     12944 MEMB     104      PMPE     H14Y     HAL2     0.900000E-01   1.00800           0   0.00000     -0.301140E-02
     12945 MEMB     104      PMPE     C315     CTL2    -0.180000       12.0110           0   0.00000     -0.301140E-02
     12946 MEMB     104      PMPE     H15X     HAL2     0.900000E-01   1.00800           0   0.00000     -0.301140E-02
     12947 MEMB     104      PMPE     H15Y     HAL2     0.900000E-01   1.00800           0   0.00000     -0.301140E-02
     12948 MEMB     104      PMPE     C316     CTL3    -0.270000       12.0110           0   0.00000     -0.301140E-02
     12949 MEMB     104      PMPE     H16X     HAL3     0.900000E-01   1.00800           0   0.00000     -0.301140E-02
     12950 MEMB     104      PMPE     H16Y     HAL3     0.900000E-01   1.00800           0   0.00000     -0.301140E-02
     12951 MEMB     104      PMPE     H16Z     HAL3     0.900000E-01   1.00800           0   0.00000     -0.301140E-02
     12952 MEMB     105      QMPE     N        NH3L    -0.300000       14.0070           0   0.00000     -0.301140E-02
     12953 MEMB     105      QMPE     HN1      HCL      0.330000       1.00800           0   0.00000     -0.301140E-02
     12954 MEMB     105      QMPE     HN2      HCL      0.330000       1.00800           0   0.00000     -0.301140E-02
     12955 MEMB     105      QMPE     HN3      HCL      0.330000       1.00800           0   0.00000     -0.301140E-02
     12956 MEMB     105      QMPE     C12      CTL2     0.130000       12.0110           0   0.00000     -0.301140E-02
     12957 MEMB     105      QMPE     H12A     HAL2     0.900000E-01   1.00800           0   0.00000     -0.301140E-02
     12958 MEMB     105      QMPE     H12B     HAL2     0.900000E-01   1.00800           0   0.00000     -0.301140E-02
     12959 MEMB     105      QMPE     C11      CTL2    -0.800000E-01   12.0110           0   0.00000     -0.301140E-02
     12960 MEMB     105      QMPE     H11A     HAL2     0.900000E-01   1.00800           0   0.00000     -0.301140E-02
     12961 MEMB     105      QMPE     H11B     HAL2     0.900000E-01   1.00800           0   0.00000     -0.301140E-02
     12962 MEMB     105      QMPE     P        PL        1.50000       30.9740           0   0.00000     -0.301140E-02
     12963 MEMB     105      QMPE     O13      O2L     -0.780000       15.9994           0   0.00000     -0.301140E-02
     12964 MEMB     105      QMPE     O14      O2L     -0.780000       15.9994           0   0.00000     -0.301140E-02
     12965 MEMB     105      QMPE     O11      OSLP    -0.570000       15.9994           0   0.00000     -0.301140E-02
     12966 MEMB     105      QMPE     O12      OSLP    -0.570000       15.9994           0   0.00000     -0.301140E-02
     12967 MEMB     105      QMPE     C1       CTL2    -0.800000E-01   12.0110           0   0.00000     -0.301140E-02
     12968 MEMB     105      QMPE     HA       HAL2     0.900000E-01   1.00800           0   0.00000     -0.301140E-02
     12969 MEMB     105      QMPE     HB       HAL2     0.900000E-01   1.00800           0   0.00000     -0.301140E-02
     12970 MEMB     105      QMPE     C2       CTL1     0.170000       12.0110           0   0.00000     -0.301140E-02
     12971 MEMB     105      QMPE     HS       HAL1     0.900000E-01   1.00800           0   0.00000     -0.301140E-02
     12972 MEMB     105      QMPE     O21      OSL     -0.490000       15.9994           0   0.00000     -0.301140E-02
     12973 MEMB     105      QMPE     C21      CL       0.900000       12.0110           0   0.00000     -0.301140E-02
     12974 MEMB     105      QMPE     O22      OBL     -0.630000       15.9994           0   0.00000     -0.301140E-02
     12975 MEMB     105      QMPE     C22      CTL2    -0.220000       12.0110           0   0.00000     -0.301140E-02
     12976 MEMB     105      QMPE     H2R      HAL2     0.900000E-01   1.00800           0   0.00000     -0.301140E-02
     12977 MEMB     105      QMPE     H2S      HAL2     0.900000E-01   1.00800           0   0.00000     -0.301140E-02
     12978 MEMB     105      QMPE     C3       CTL2     0.800000E-01   12.0110           0   0.00000     -0.301140E-02
     12979 MEMB     105      QMPE     HX       HAL2     0.900000E-01   1.00800           0   0.00000     -0.301140E-02
     12980 MEMB     105      QMPE     HY       HAL2     0.900000E-01   1.00800           0   0.00000     -0.301140E-02
     12981 MEMB     105      QMPE     O31      OSL     -0.490000       15.9994           0   0.00000     -0.301140E-02
     12982 MEMB     105      QMPE     C31      CL       0.900000       12.0110           0   0.00000     -0.301140E-02
     12983 MEMB     105      QMPE     O32      OBL     -0.630000       15.9994           0   0.00000     -0.301140E-02
     12984 MEMB     105      QMPE     C32      CTL2    -0.220000       12.0110           0   0.00000     -0.301140E-02
     12985 MEMB     105      QMPE     H2X      HAL2     0.900000E-01   1.00800           0   0.00000     -0.301140E-02
     12986 MEMB     105      QMPE     H2Y      HAL2     0.900000E-01   1.00800           0   0.00000     -0.301140E-02
     12987 MEMB     105      QMPE     C23      CTL2    -0.180000       12.0110           0   0.00000     -0.301140E-02
     12988 MEMB     105      QMPE     H3R      HAL2     0.900000E-01   1.00800           0   0.00000     -0.301140E-02
     12989 MEMB     105      QMPE     H3S      HAL2     0.900000E-01   1.00800           0   0.00000     -0.301140E-02
     12990 MEMB     105      QMPE     C24      CTL2    -0.180000       12.0110           0   0.00000     -0.301140E-02
     12991 MEMB     105      QMPE     H4R      HAL2     0.900000E-01   1.00800           0   0.00000     -0.301140E-02
     12992 MEMB     105      QMPE     H4S      HAL2     0.900000E-01   1.00800           0   0.00000     -0.301140E-02
     12993 MEMB     105      QMPE     C25      CTL2    -0.180000       12.0110           0   0.00000     -0.301140E-02
     12994 MEMB     105      QMPE     H5R      HAL2     0.900000E-01   1.00800           0   0.00000     -0.301140E-02
     12995 MEMB     105      QMPE     H5S      HAL2     0.900000E-01   1.00800           0   0.00000     -0.301140E-02
     12996 MEMB     105      QMPE     C26      CTL2    -0.180000       12.0110           0   0.00000     -0.301140E-02
     12997 MEMB     105      QMPE     H6R      HAL2     0.900000E-01   1.00800           0   0.00000     -0.301140E-02
     12998 MEMB     105      QMPE     H6S      HAL2     0.900000E-01   1.00800           0   0.00000     -0.301140E-02
     12999 MEMB     105      QMPE     C27      CTL2    -0.180000       12.0110           0   0.00000     -0.301140E-02
     13000 MEMB     105      QMPE     H7R      HAL2     0.900000E-01   1.00800           0   0.00000     -0.301140E-02
     13001 MEMB     105      QMPE     H7S      HAL2     0.900000E-01   1.00800           0   0.00000     -0.301140E-02
     13002 MEMB     105      QMPE     C28      CTL2    -0.180000       12.0110           0   0.00000     -0.301140E-02
     13003 MEMB     105      QMPE     H8R      HAL2     0.900000E-01   1.00800           0   0.00000     -0.301140E-02
     13004 MEMB     105      QMPE     H8S      HAL2     0.900000E-01   1.00800           0   0.00000     -0.301140E-02
     13005 MEMB     105      QMPE     C29      CG3RC1  -0.900000E-01   12.0110           0   0.00000     -0.301140E-02
     13006 MEMB     105      QMPE     H9R      HGA1     0.900000E-01   1.00800           0   0.00000     -0.301140E-02
     13007 MEMB     105      QMPE     C217     CG3C31  -0.180000       12.0110           0   0.00000     -0.301140E-02
     13008 MEMB     105      QMPE     H17R     HGA2     0.900000E-01   1.00800           0   0.00000     -0.301140E-02
     13009 MEMB     105      QMPE     H17S     HGA2     0.900000E-01   1.00800           0   0.00000     -0.301140E-02
     13010 MEMB     105      QMPE     C210     CG3RC1  -0.900000E-01   12.0110           0   0.00000     -0.301140E-02
     13011 MEMB     105      QMPE     H10R     HGA1     0.900000E-01   1.00800           0   0.00000     -0.301140E-02
     13012 MEMB     105      QMPE     C211     CTL2    -0.180000       12.0110           0   0.00000     -0.301140E-02
     13013 MEMB     105      QMPE     H11R     HAL2     0.900000E-01   1.00800           0   0.00000     -0.301140E-02
     13014 MEMB     105      QMPE     H11S     HAL2     0.900000E-01   1.00800           0   0.00000     -0.301140E-02
     13015 MEMB     105      QMPE     C212     CTL2    -0.180000       12.0110           0   0.00000     -0.301140E-02
     13016 MEMB     105      QMPE     H12R     HAL2     0.900000E-01   1.00800           0   0.00000     -0.301140E-02
     13017 MEMB     105      QMPE     H12S     HAL2     0.900000E-01   1.00800           0   0.00000     -0.301140E-02
     13018 MEMB     105      QMPE     C213     CTL2    -0.180000       12.0110           0   0.00000     -0.301140E-02
     13019 MEMB     105      QMPE     H13R     HAL2     0.900000E-01   1.00800           0   0.00000     -0.301140E-02
     13020 MEMB     105      QMPE     H13S     HAL2     0.900000E-01   1.00800           0   0.00000     -0.301140E-02
     13021 MEMB     105      QMPE     C214     CTL2    -0.180000       12.0110           0   0.00000     -0.301140E-02
     13022 MEMB     105      QMPE     H14R     HAL2     0.900000E-01   1.00800           0   0.00000     -0.301140E-02
     13023 MEMB     105      QMPE     H14S     HAL2     0.900000E-01   1.00800           0   0.00000     -0.301140E-02
     13024 MEMB     105      QMPE     C215     CTL2    -0.180000       12.0110           0   0.00000     -0.301140E-02
     13025 MEMB     105      QMPE     H15R     HAL2     0.900000E-01   1.00800           0   0.00000     -0.301140E-02
     13026 MEMB     105      QMPE     H15S     HAL2     0.900000E-01   1.00800           0   0.00000     -0.301140E-02
     13027 MEMB     105      QMPE     C216     CTL3    -0.270000       12.0110           0   0.00000     -0.301140E-02
     13028 MEMB     105      QMPE     H16R     HAL3     0.900000E-01   1.00800           0   0.00000     -0.301140E-02
     13029 MEMB     105      QMPE     H16S     HAL3     0.900000E-01   1.00800           0   0.00000     -0.301140E-02
     13030 MEMB     105      QMPE     H16T     HAL3     0.900000E-01   1.00800           0   0.00000     -0.301140E-02
     13031 MEMB     105      QMPE     C33      CTL2    -0.180000       12.0110           0   0.00000     -0.301140E-02
     13032 MEMB     105      QMPE     H3X      HAL2     0.900000E-01   1.00800           0   0.00000     -0.301140E-02
     13033 MEMB     105      QMPE     H3Y      HAL2     0.900000E-01   1.00800           0   0.00000     -0.301140E-02
     13034 MEMB     105      QMPE     C34      CTL2    -0.180000       12.0110           0   0.00000     -0.301140E-02
     13035 MEMB     105      QMPE     H4X      HAL2     0.900000E-01   1.00800           0   0.00000     -0.301140E-02
     13036 MEMB     105      QMPE     H4Y      HAL2     0.900000E-01   1.00800           0   0.00000     -0.301140E-02
     13037 MEMB     105      QMPE     C35      CTL2    -0.180000       12.0110           0   0.00000     -0.301140E-02
     13038 MEMB     105      QMPE     H5X      HAL2     0.900000E-01   1.00800           0   0.00000     -0.301140E-02
     13039 MEMB     105      QMPE     H5Y      HAL2     0.900000E-01   1.00800           0   0.00000     -0.301140E-02
     13040 MEMB     105      QMPE     C36      CTL2    -0.180000       12.0110           0   0.00000     -0.301140E-02
     13041 MEMB     105      QMPE     H6X      HAL2     0.900000E-01   1.00800           0   0.00000     -0.301140E-02
     13042 MEMB     105      QMPE     H6Y      HAL2     0.900000E-01   1.00800           0   0.00000     -0.301140E-02
     13043 MEMB     105      QMPE     C37      CTL2    -0.180000       12.0110           0   0.00000     -0.301140E-02
     13044 MEMB     105      QMPE     H7X      HAL2     0.900000E-01   1.00800           0   0.00000     -0.301140E-02
     13045 MEMB     105      QMPE     H7Y      HAL2     0.900000E-01   1.00800           0   0.00000     -0.301140E-02
     13046 MEMB     105      QMPE     C38      CTL2    -0.180000       12.0110           0   0.00000     -0.301140E-02
     13047 MEMB     105      QMPE     H8X      HAL2     0.900000E-01   1.00800           0   0.00000     -0.301140E-02
     13048 MEMB     105      QMPE     H8Y      HAL2     0.900000E-01   1.00800           0   0.00000     -0.301140E-02
     13049 MEMB     105      QMPE     C39      CTL2    -0.180000       12.0110           0   0.00000     -0.301140E-02
     13050 MEMB     105      QMPE     H9X      HAL2     0.900000E-01   1.00800           0   0.00000     -0.301140E-02
     13051 MEMB     105      QMPE     H9Y      HAL2     0.900000E-01   1.00800           0   0.00000     -0.301140E-02
     13052 MEMB     105      QMPE     C310     CTL2    -0.180000       12.0110           0   0.00000     -0.301140E-02
     13053 MEMB     105      QMPE     H10X     HAL2     0.900000E-01   1.00800           0   0.00000     -0.301140E-02
     13054 MEMB     105      QMPE     H10Y     HAL2     0.900000E-01   1.00800           0   0.00000     -0.301140E-02
     13055 MEMB     105      QMPE     C311     CTL2    -0.180000       12.0110           0   0.00000     -0.301140E-02
     13056 MEMB     105      QMPE     H11X     HAL2     0.900000E-01   1.00800           0   0.00000     -0.301140E-02
     13057 MEMB     105      QMPE     H11Y     HAL2     0.900000E-01   1.00800           0   0.00000     -0.301140E-02
     13058 MEMB     105      QMPE     C312     CTL2    -0.180000       12.0110           0   0.00000     -0.301140E-02
     13059 MEMB     105      QMPE     H12X     HAL2     0.900000E-01   1.00800           0   0.00000     -0.301140E-02
     13060 MEMB     105      QMPE     H12Y     HAL2     0.900000E-01   1.00800           0   0.00000     -0.301140E-02
     13061 MEMB     105      QMPE     C313     CTL2    -0.180000       12.0110           0   0.00000     -0.301140E-02
     13062 MEMB     105      QMPE     H13X     HAL2     0.900000E-01   1.00800           0   0.00000     -0.301140E-02
     13063 MEMB     105      QMPE     H13Y     HAL2     0.900000E-01   1.00800           0   0.00000     -0.301140E-02
     13064 MEMB     105      QMPE     C314     CTL2    -0.180000       12.0110           0   0.00000     -0.301140E-02
     13065 MEMB     105      QMPE     H14X     HAL2     0.900000E-01   1.00800           0   0.00000     -0.301140E-02
     13066 MEMB     105      QMPE     H14Y     HAL2     0.900000E-01   1.00800           0   0.00000     -0.301140E-02
     13067 MEMB     105      QMPE     C315     CTL3    -0.270000       12.0110           0   0.00000     -0.301140E-02
     13068 MEMB     105      QMPE     H15X     HAL3     0.900000E-01   1.00800           0   0.00000     -0.301140E-02
     13069 MEMB     105      QMPE     H15Y     HAL3     0.900000E-01   1.00800           0   0.00000     -0.301140E-02
     13070 MEMB     105      QMPE     H15Z     HAL3     0.900000E-01   1.00800           0   0.00000     -0.301140E-02
     13071 MEMB     106      QMPE     N        NH3L    -0.300000       14.0070           0   0.00000     -0.301140E-02
     13072 MEMB     106      QMPE     HN1      HCL      0.330000       1.00800           0   0.00000     -0.301140E-02
     13073 MEMB     106      QMPE     HN2      HCL      0.330000       1.00800           0   0.00000     -0.301140E-02
     13074 MEMB     106      QMPE     HN3      HCL      0.330000       1.00800           0   0.00000     -0.301140E-02
     13075 MEMB     106      QMPE     C12      CTL2     0.130000       12.0110           0   0.00000     -0.301140E-02
     13076 MEMB     106      QMPE     H12A     HAL2     0.900000E-01   1.00800           0   0.00000     -0.301140E-02
     13077 MEMB     106      QMPE     H12B     HAL2     0.900000E-01   1.00800           0   0.00000     -0.301140E-02
     13078 MEMB     106      QMPE     C11      CTL2    -0.800000E-01   12.0110           0   0.00000     -0.301140E-02
     13079 MEMB     106      QMPE     H11A     HAL2     0.900000E-01   1.00800           0   0.00000     -0.301140E-02
     13080 MEMB     106      QMPE     H11B     HAL2     0.900000E-01   1.00800           0   0.00000     -0.301140E-02
     13081 MEMB     106      QMPE     P        PL        1.50000       30.9740           0   0.00000     -0.301140E-02
     13082 MEMB     106      QMPE     O13      O2L     -0.780000       15.9994           0   0.00000     -0.301140E-02
     13083 MEMB     106      QMPE     O14      O2L     -0.780000       15.9994           0   0.00000     -0.301140E-02
     13084 MEMB     106      QMPE     O11      OSLP    -0.570000       15.9994           0   0.00000     -0.301140E-02
     13085 MEMB     106      QMPE     O12      OSLP    -0.570000       15.9994           0   0.00000     -0.301140E-02
     13086 MEMB     106      QMPE     C1       CTL2    -0.800000E-01   12.0110           0   0.00000     -0.301140E-02
     13087 MEMB     106      QMPE     HA       HAL2     0.900000E-01   1.00800           0   0.00000     -0.301140E-02
     13088 MEMB     106      QMPE     HB       HAL2     0.900000E-01   1.00800           0   0.00000     -0.301140E-02
     13089 MEMB     106      QMPE     C2       CTL1     0.170000       12.0110           0   0.00000     -0.301140E-02
     13090 MEMB     106      QMPE     HS       HAL1     0.900000E-01   1.00800           0   0.00000     -0.301140E-02
     13091 MEMB     106      QMPE     O21      OSL     -0.490000       15.9994           0   0.00000     -0.301140E-02
     13092 MEMB     106      QMPE     C21      CL       0.900000       12.0110           0   0.00000     -0.301140E-02
     13093 MEMB     106      QMPE     O22      OBL     -0.630000       15.9994           0   0.00000     -0.301140E-02
     13094 MEMB     106      QMPE     C22      CTL2    -0.220000       12.0110           0   0.00000     -0.301140E-02
     13095 MEMB     106      QMPE     H2R      HAL2     0.900000E-01   1.00800           0   0.00000     -0.301140E-02
     13096 MEMB     106      QMPE     H2S      HAL2     0.900000E-01   1.00800           0   0.00000     -0.301140E-02
     13097 MEMB     106      QMPE     C3       CTL2     0.800000E-01   12.0110           0   0.00000     -0.301140E-02
     13098 MEMB     106      QMPE     HX       HAL2     0.900000E-01   1.00800           0   0.00000     -0.301140E-02
     13099 MEMB     106      QMPE     HY       HAL2     0.900000E-01   1.00800           0   0.00000     -0.301140E-02
     13100 MEMB     106      QMPE     O31      OSL     -0.490000       15.9994           0   0.00000     -0.301140E-02
     13101 MEMB     106      QMPE     C31      CL       0.900000       12.0110           0   0.00000     -0.301140E-02
     13102 MEMB     106      QMPE     O32      OBL     -0.630000       15.9994           0   0.00000     -0.301140E-02
     13103 MEMB     106      QMPE     C32      CTL2    -0.220000       12.0110           0   0.00000     -0.301140E-02
     13104 MEMB     106      QMPE     H2X      HAL2     0.900000E-01   1.00800           0   0.00000     -0.301140E-02
     13105 MEMB     106      QMPE     H2Y      HAL2     0.900000E-01   1.00800           0   0.00000     -0.301140E-02
     13106 MEMB     106      QMPE     C23      CTL2    -0.180000       12.0110           0   0.00000     -0.301140E-02
     13107 MEMB     106      QMPE     H3R      HAL2     0.900000E-01   1.00800           0   0.00000     -0.301140E-02
     13108 MEMB     106      QMPE     H3S      HAL2     0.900000E-01   1.00800           0   0.00000     -0.301140E-02
     13109 MEMB     106      QMPE     C24      CTL2    -0.180000       12.0110           0   0.00000     -0.301140E-02
     13110 MEMB     106      QMPE     H4R      HAL2     0.900000E-01   1.00800           0   0.00000     -0.301140E-02
     13111 MEMB     106      QMPE     H4S      HAL2     0.900000E-01   1.00800           0   0.00000     -0.301140E-02
     13112 MEMB     106      QMPE     C25      CTL2    -0.180000       12.0110           0   0.00000     -0.301140E-02
     13113 MEMB     106      QMPE     H5R      HAL2     0.900000E-01   1.00800           0   0.00000     -0.301140E-02
     13114 MEMB     106      QMPE     H5S      HAL2     0.900000E-01   1.00800           0   0.00000     -0.301140E-02
     13115 MEMB     106      QMPE     C26      CTL2    -0.180000       12.0110           0   0.00000     -0.301140E-02
     13116 MEMB     106      QMPE     H6R      HAL2     0.900000E-01   1.00800           0   0.00000     -0.301140E-02
     13117 MEMB     106      QMPE     H6S      HAL2     0.900000E-01   1.00800           0   0.00000     -0.301140E-02
     13118 MEMB     106      QMPE     C27      CTL2    -0.180000       12.0110           0   0.00000     -0.301140E-02
     13119 MEMB     106      QMPE     H7R      HAL2     0.900000E-01   1.00800           0   0.00000     -0.301140E-02
     13120 MEMB     106      QMPE     H7S      HAL2     0.900000E-01   1.00800           0   0.00000     -0.301140E-02
     13121 MEMB     106      QMPE     C28      CTL2    -0.180000       12.0110           0   0.00000     -0.301140E-02
     13122 MEMB     106      QMPE     H8R      HAL2     0.900000E-01   1.00800           0   0.00000     -0.301140E-02
     13123 MEMB     106      QMPE     H8S      HAL2     0.900000E-01   1.00800           0   0.00000     -0.301140E-02
     13124 MEMB     106      QMPE     C29      CG3RC1  -0.900000E-01   12.0110           0   0.00000     -0.301140E-02
     13125 MEMB     106      QMPE     H9R      HGA1     0.900000E-01   1.00800           0   0.00000     -0.301140E-02
     13126 MEMB     106      QMPE     C217     CG3C31  -0.180000       12.0110           0   0.00000     -0.301140E-02
     13127 MEMB     106      QMPE     H17R     HGA2     0.900000E-01   1.00800           0   0.00000     -0.301140E-02
     13128 MEMB     106      QMPE     H17S     HGA2     0.900000E-01   1.00800           0   0.00000     -0.301140E-02
     13129 MEMB     106      QMPE     C210     CG3RC1  -0.900000E-01   12.0110           0   0.00000     -0.301140E-02
     13130 MEMB     106      QMPE     H10R     HGA1     0.900000E-01   1.00800           0   0.00000     -0.301140E-02
     13131 MEMB     106      QMPE     C211     CTL2    -0.180000       12.0110           0   0.00000     -0.301140E-02
     13132 MEMB     106      QMPE     H11R     HAL2     0.900000E-01   1.00800           0   0.00000     -0.301140E-02
     13133 MEMB     106      QMPE     H11S     HAL2     0.900000E-01   1.00800           0   0.00000     -0.301140E-02
     13134 MEMB     106      QMPE     C212     CTL2    -0.180000       12.0110           0   0.00000     -0.301140E-02
     13135 MEMB     106      QMPE     H12R     HAL2     0.900000E-01   1.00800           0   0.00000     -0.301140E-02
     13136 MEMB     106      QMPE     H12S     HAL2     0.900000E-01   1.00800           0   0.00000     -0.301140E-02
     13137 MEMB     106      QMPE     C213     CTL2    -0.180000       12.0110           0   0.00000     -0.301140E-02
     13138 MEMB     106      QMPE     H13R     HAL2     0.900000E-01   1.00800           0   0.00000     -0.301140E-02
     13139 MEMB     106      QMPE     H13S     HAL2     0.900000E-01   1.00800           0   0.00000     -0.301140E-02
     13140 MEMB     106      QMPE     C214     CTL2    -0.180000       12.0110           0   0.00000     -0.301140E-02
     13141 MEMB     106      QMPE     H14R     HAL2     0.900000E-01   1.00800           0   0.00000     -0.301140E-02
     13142 MEMB     106      QMPE     H14S     HAL2     0.900000E-01   1.00800           0   0.00000     -0.301140E-02
     13143 MEMB     106      QMPE     C215     CTL2    -0.180000       12.0110           0   0.00000     -0.301140E-02
     13144 MEMB     106      QMPE     H15R     HAL2     0.900000E-01   1.00800           0   0.00000     -0.301140E-02
     13145 MEMB     106      QMPE     H15S     HAL2     0.900000E-01   1.00800           0   0.00000     -0.301140E-02
     13146 MEMB     106      QMPE     C216     CTL3    -0.270000       12.0110           0   0.00000     -0.301140E-02
     13147 MEMB     106      QMPE     H16R     HAL3     0.900000E-01   1.00800           0   0.00000     -0.301140E-02
     13148 MEMB     106      QMPE     H16S     HAL3     0.900000E-01   1.00800           0   0.00000     -0.301140E-02
     13149 MEMB     106      QMPE     H16T     HAL3     0.900000E-01   1.00800           0   0.00000     -0.301140E-02
     13150 MEMB     106      QMPE     C33      CTL2    -0.180000       12.0110           0   0.00000     -0.301140E-02
     13151 MEMB     106      QMPE     H3X      HAL2     0.900000E-01   1.00800           0   0.00000     -0.301140E-02
     13152 MEMB     106      QMPE     H3Y      HAL2     0.900000E-01   1.00800           0   0.00000     -0.301140E-02
     13153 MEMB     106      QMPE     C34      CTL2    -0.180000       12.0110           0   0.00000     -0.301140E-02
     13154 MEMB     106      QMPE     H4X      HAL2     0.900000E-01   1.00800           0   0.00000     -0.301140E-02
     13155 MEMB     106      QMPE     H4Y      HAL2     0.900000E-01   1.00800           0   0.00000     -0.301140E-02
     13156 MEMB     106      QMPE     C35      CTL2    -0.180000       12.0110           0   0.00000     -0.301140E-02
     13157 MEMB     106      QMPE     H5X      HAL2     0.900000E-01   1.00800           0   0.00000     -0.301140E-02
     13158 MEMB     106      QMPE     H5Y      HAL2     0.900000E-01   1.00800           0   0.00000     -0.301140E-02
     13159 MEMB     106      QMPE     C36      CTL2    -0.180000       12.0110           0   0.00000     -0.301140E-02
     13160 MEMB     106      QMPE     H6X      HAL2     0.900000E-01   1.00800           0   0.00000     -0.301140E-02
     13161 MEMB     106      QMPE     H6Y      HAL2     0.900000E-01   1.00800           0   0.00000     -0.301140E-02
     13162 MEMB     106      QMPE     C37      CTL2    -0.180000       12.0110           0   0.00000     -0.301140E-02
     13163 MEMB     106      QMPE     H7X      HAL2     0.900000E-01   1.00800           0   0.00000     -0.301140E-02
     13164 MEMB     106      QMPE     H7Y      HAL2     0.900000E-01   1.00800           0   0.00000     -0.301140E-02
     13165 MEMB     106      QMPE     C38      CTL2    -0.180000       12.0110           0   0.00000     -0.301140E-02
     13166 MEMB     106      QMPE     H8X      HAL2     0.900000E-01   1.00800           0   0.00000     -0.301140E-02
     13167 MEMB     106      QMPE     H8Y      HAL2     0.900000E-01   1.00800           0   0.00000     -0.301140E-02
     13168 MEMB     106      QMPE     C39      CTL2    -0.180000       12.0110           0   0.00000     -0.301140E-02
     13169 MEMB     106      QMPE     H9X      HAL2     0.900000E-01   1.00800           0   0.00000     -0.301140E-02
     13170 MEMB     106      QMPE     H9Y      HAL2     0.900000E-01   1.00800           0   0.00000     -0.301140E-02
     13171 MEMB     106      QMPE     C310     CTL2    -0.180000       12.0110           0   0.00000     -0.301140E-02
     13172 MEMB     106      QMPE     H10X     HAL2     0.900000E-01   1.00800           0   0.00000     -0.301140E-02
     13173 MEMB     106      QMPE     H10Y     HAL2     0.900000E-01   1.00800           0   0.00000     -0.301140E-02
     13174 MEMB     106      QMPE     C311     CTL2    -0.180000       12.0110           0   0.00000     -0.301140E-02
     13175 MEMB     106      QMPE     H11X     HAL2     0.900000E-01   1.00800           0   0.00000     -0.301140E-02
     13176 MEMB     106      QMPE     H11Y     HAL2     0.900000E-01   1.00800           0   0.00000     -0.301140E-02
     13177 MEMB     106      QMPE     C312     CTL2    -0.180000       12.0110           0   0.00000     -0.301140E-02
     13178 MEMB     106      QMPE     H12X     HAL2     0.900000E-01   1.00800           0   0.00000     -0.301140E-02
     13179 MEMB     106      QMPE     H12Y     HAL2     0.900000E-01   1.00800           0   0.00000     -0.301140E-02
     13180 MEMB     106      QMPE     C313     CTL2    -0.180000       12.0110           0   0.00000     -0.301140E-02
     13181 MEMB     106      QMPE     H13X     HAL2     0.900000E-01   1.00800           0   0.00000     -0.301140E-02
     13182 MEMB     106      QMPE     H13Y     HAL2     0.900000E-01   1.00800           0   0.00000     -0.301140E-02
     13183 MEMB     106      QMPE     C314     CTL2    -0.180000       12.0110           0   0.00000     -0.301140E-02
     13184 MEMB     106      QMPE     H14X     HAL2     0.900000E-01   1.00800           0   0.00000     -0.301140E-02
     13185 MEMB     106      QMPE     H14Y     HAL2     0.900000E-01   1.00800           0   0.00000     -0.301140E-02
     13186 MEMB     106      QMPE     C315     CTL3    -0.270000       12.0110           0   0.00000     -0.301140E-02
     13187 MEMB     106      QMPE     H15X     HAL3     0.900000E-01   1.00800           0   0.00000     -0.301140E-02
     13188 MEMB     106      QMPE     H15Y     HAL3     0.900000E-01   1.00800           0   0.00000     -0.301140E-02
     13189 MEMB     106      QMPE     H15Z     HAL3     0.900000E-01   1.00800           0   0.00000     -0.301140E-02
     13190 MEMB     107      PMPE     N        NH3L    -0.300000       14.0070           0   0.00000     -0.301140E-02
     13191 MEMB     107      PMPE     HN1      HCL      0.330000       1.00800           0   0.00000     -0.301140E-02
     13192 MEMB     107      PMPE     HN2      HCL      0.330000       1.00800           0   0.00000     -0.301140E-02
     13193 MEMB     107      PMPE     HN3      HCL      0.330000       1.00800           0   0.00000     -0.301140E-02
     13194 MEMB     107      PMPE     C12      CTL2     0.130000       12.0110           0   0.00000     -0.301140E-02
     13195 MEMB     107      PMPE     H12A     HAL2     0.900000E-01   1.00800           0   0.00000     -0.301140E-02
     13196 MEMB     107      PMPE     H12B     HAL2     0.900000E-01   1.00800           0   0.00000     -0.301140E-02
     13197 MEMB     107      PMPE     C11      CTL2    -0.800000E-01   12.0110           0   0.00000     -0.301140E-02
     13198 MEMB     107      PMPE     H11A     HAL2     0.900000E-01   1.00800           0   0.00000     -0.301140E-02
     13199 MEMB     107      PMPE     H11B     HAL2     0.900000E-01   1.00800           0   0.00000     -0.301140E-02
     13200 MEMB     107      PMPE     P        PL        1.50000       30.9740           0   0.00000     -0.301140E-02
     13201 MEMB     107      PMPE     O13      O2L     -0.780000       15.9994           0   0.00000     -0.301140E-02
     13202 MEMB     107      PMPE     O14      O2L     -0.780000       15.9994           0   0.00000     -0.301140E-02
     13203 MEMB     107      PMPE     O11      OSLP    -0.570000       15.9994           0   0.00000     -0.301140E-02
     13204 MEMB     107      PMPE     O12      OSLP    -0.570000       15.9994           0   0.00000     -0.301140E-02
     13205 MEMB     107      PMPE     C1       CTL2    -0.800000E-01   12.0110           0   0.00000     -0.301140E-02
     13206 MEMB     107      PMPE     HA       HAL2     0.900000E-01   1.00800           0   0.00000     -0.301140E-02
     13207 MEMB     107      PMPE     HB       HAL2     0.900000E-01   1.00800           0   0.00000     -0.301140E-02
     13208 MEMB     107      PMPE     C2       CTL1     0.170000       12.0110           0   0.00000     -0.301140E-02
     13209 MEMB     107      PMPE     HS       HAL1     0.900000E-01   1.00800           0   0.00000     -0.301140E-02
     13210 MEMB     107      PMPE     O21      OSL     -0.490000       15.9994           0   0.00000     -0.301140E-02
     13211 MEMB     107      PMPE     C21      CL       0.900000       12.0110           0   0.00000     -0.301140E-02
     13212 MEMB     107      PMPE     O22      OBL     -0.630000       15.9994           0   0.00000     -0.301140E-02
     13213 MEMB     107      PMPE     C22      CTL2    -0.220000       12.0110           0   0.00000     -0.301140E-02
     13214 MEMB     107      PMPE     H2R      HAL2     0.900000E-01   1.00800           0   0.00000     -0.301140E-02
     13215 MEMB     107      PMPE     H2S      HAL2     0.900000E-01   1.00800           0   0.00000     -0.301140E-02
     13216 MEMB     107      PMPE     C3       CTL2     0.800000E-01   12.0110           0   0.00000     -0.301140E-02
     13217 MEMB     107      PMPE     HX       HAL2     0.900000E-01   1.00800           0   0.00000     -0.301140E-02
     13218 MEMB     107      PMPE     HY       HAL2     0.900000E-01   1.00800           0   0.00000     -0.301140E-02
     13219 MEMB     107      PMPE     O31      OSL     -0.490000       15.9994           0   0.00000     -0.301140E-02
     13220 MEMB     107      PMPE     C31      CL       0.900000       12.0110           0   0.00000     -0.301140E-02
     13221 MEMB     107      PMPE     O32      OBL     -0.630000       15.9994           0   0.00000     -0.301140E-02
     13222 MEMB     107      PMPE     C32      CTL2    -0.220000       12.0110           0   0.00000     -0.301140E-02
     13223 MEMB     107      PMPE     H2X      HAL2     0.900000E-01   1.00800           0   0.00000     -0.301140E-02
     13224 MEMB     107      PMPE     H2Y      HAL2     0.900000E-01   1.00800           0   0.00000     -0.301140E-02
     13225 MEMB     107      PMPE     C23      CTL2    -0.180000       12.0110           0   0.00000     -0.301140E-02
     13226 MEMB     107      PMPE     H3R      HAL2     0.900000E-01   1.00800           0   0.00000     -0.301140E-02
     13227 MEMB     107      PMPE     H3S      HAL2     0.900000E-01   1.00800           0   0.00000     -0.301140E-02
     13228 MEMB     107      PMPE     C24      CTL2    -0.180000       12.0110           0   0.00000     -0.301140E-02
     13229 MEMB     107      PMPE     H4R      HAL2     0.900000E-01   1.00800           0   0.00000     -0.301140E-02
     13230 MEMB     107      PMPE     H4S      HAL2     0.900000E-01   1.00800           0   0.00000     -0.301140E-02
     13231 MEMB     107      PMPE     C25      CTL2    -0.180000       12.0110           0   0.00000     -0.301140E-02
     13232 MEMB     107      PMPE     H5R      HAL2     0.900000E-01   1.00800           0   0.00000     -0.301140E-02
     13233 MEMB     107      PMPE     H5S      HAL2     0.900000E-01   1.00800           0   0.00000     -0.301140E-02
     13234 MEMB     107      PMPE     C26      CTL2    -0.180000       12.0110           0   0.00000     -0.301140E-02
     13235 MEMB     107      PMPE     H6R      HAL2     0.900000E-01   1.00800           0   0.00000     -0.301140E-02
     13236 MEMB     107      PMPE     H6S      HAL2     0.900000E-01   1.00800           0   0.00000     -0.301140E-02
     13237 MEMB     107      PMPE     C27      CTL2    -0.180000       12.0110           0   0.00000     -0.301140E-02
     13238 MEMB     107      PMPE     H7R      HAL2     0.900000E-01   1.00800           0   0.00000     -0.301140E-02
     13239 MEMB     107      PMPE     H7S      HAL2     0.900000E-01   1.00800           0   0.00000     -0.301140E-02
     13240 MEMB     107      PMPE     C28      CTL2    -0.180000       12.0110           0   0.00000     -0.301140E-02
     13241 MEMB     107      PMPE     H8R      HAL2     0.900000E-01   1.00800           0   0.00000     -0.301140E-02
     13242 MEMB     107      PMPE     H8S      HAL2     0.900000E-01   1.00800           0   0.00000     -0.301140E-02
     13243 MEMB     107      PMPE     C29      CG3RC1  -0.900000E-01   12.0110           0   0.00000     -0.301140E-02
     13244 MEMB     107      PMPE     H9R      HGA1     0.900000E-01   1.00800           0   0.00000     -0.301140E-02
     13245 MEMB     107      PMPE     C217     CG3C31  -0.180000       12.0110           0   0.00000     -0.301140E-02
     13246 MEMB     107      PMPE     H17R     HGA2     0.900000E-01   1.00800           0   0.00000     -0.301140E-02
     13247 MEMB     107      PMPE     H17S     HGA2     0.900000E-01   1.00800           0   0.00000     -0.301140E-02
     13248 MEMB     107      PMPE     C210     CG3RC1  -0.900000E-01   12.0110           0   0.00000     -0.301140E-02
     13249 MEMB     107      PMPE     H10R     HGA1     0.900000E-01   1.00800           0   0.00000     -0.301140E-02
     13250 MEMB     107      PMPE     C211     CTL2    -0.180000       12.0110           0   0.00000     -0.301140E-02
     13251 MEMB     107      PMPE     H11R     HAL2     0.900000E-01   1.00800           0   0.00000     -0.301140E-02
     13252 MEMB     107      PMPE     H11S     HAL2     0.900000E-01   1.00800           0   0.00000     -0.301140E-02
     13253 MEMB     107      PMPE     C212     CTL2    -0.180000       12.0110           0   0.00000     -0.301140E-02
     13254 MEMB     107      PMPE     H12R     HAL2     0.900000E-01   1.00800           0   0.00000     -0.301140E-02
     13255 MEMB     107      PMPE     H12S     HAL2     0.900000E-01   1.00800           0   0.00000     -0.301140E-02
     13256 MEMB     107      PMPE     C213     CTL2    -0.180000       12.0110           0   0.00000     -0.301140E-02
     13257 MEMB     107      PMPE     H13R     HAL2     0.900000E-01   1.00800           0   0.00000     -0.301140E-02
     13258 MEMB     107      PMPE     H13S     HAL2     0.900000E-01   1.00800           0   0.00000     -0.301140E-02
     13259 MEMB     107      PMPE     C214     CTL2    -0.180000       12.0110           0   0.00000     -0.301140E-02
     13260 MEMB     107      PMPE     H14R     HAL2     0.900000E-01   1.00800           0   0.00000     -0.301140E-02
     13261 MEMB     107      PMPE     H14S     HAL2     0.900000E-01   1.00800           0   0.00000     -0.301140E-02
     13262 MEMB     107      PMPE     C215     CTL2    -0.180000       12.0110           0   0.00000     -0.301140E-02
     13263 MEMB     107      PMPE     H15R     HAL2     0.900000E-01   1.00800           0   0.00000     -0.301140E-02
     13264 MEMB     107      PMPE     H15S     HAL2     0.900000E-01   1.00800           0   0.00000     -0.301140E-02
     13265 MEMB     107      PMPE     C216     CTL3    -0.270000       12.0110           0   0.00000     -0.301140E-02
     13266 MEMB     107      PMPE     H16R     HAL3     0.900000E-01   1.00800           0   0.00000     -0.301140E-02
     13267 MEMB     107      PMPE     H16S     HAL3     0.900000E-01   1.00800           0   0.00000     -0.301140E-02
     13268 MEMB     107      PMPE     H16T     HAL3     0.900000E-01   1.00800           0   0.00000     -0.301140E-02
     13269 MEMB     107      PMPE     C33      CTL2    -0.180000       12.0110           0   0.00000     -0.301140E-02
     13270 MEMB     107      PMPE     H3X      HAL2     0.900000E-01   1.00800           0   0.00000     -0.301140E-02
     13271 MEMB     107      PMPE     H3Y      HAL2     0.900000E-01   1.00800           0   0.00000     -0.301140E-02
     13272 MEMB     107      PMPE     C34      CTL2    -0.180000       12.0110           0   0.00000     -0.301140E-02
     13273 MEMB     107      PMPE     H4X      HAL2     0.900000E-01   1.00800           0   0.00000     -0.301140E-02
     13274 MEMB     107      PMPE     H4Y      HAL2     0.900000E-01   1.00800           0   0.00000     -0.301140E-02
     13275 MEMB     107      PMPE     C35      CTL2    -0.180000       12.0110           0   0.00000     -0.301140E-02
     13276 MEMB     107      PMPE     H5X      HAL2     0.900000E-01   1.00800           0   0.00000     -0.301140E-02
     13277 MEMB     107      PMPE     H5Y      HAL2     0.900000E-01   1.00800           0   0.00000     -0.301140E-02
     13278 MEMB     107      PMPE     C36      CTL2    -0.180000       12.0110           0   0.00000     -0.301140E-02
     13279 MEMB     107      PMPE     H6X      HAL2     0.900000E-01   1.00800           0   0.00000     -0.301140E-02
     13280 MEMB     107      PMPE     H6Y      HAL2     0.900000E-01   1.00800           0   0.00000     -0.301140E-02
     13281 MEMB     107      PMPE     C37      CTL2    -0.180000       12.0110           0   0.00000     -0.301140E-02
     13282 MEMB     107      PMPE     H7X      HAL2     0.900000E-01   1.00800           0   0.00000     -0.301140E-02
     13283 MEMB     107      PMPE     H7Y      HAL2     0.900000E-01   1.00800           0   0.00000     -0.301140E-02
     13284 MEMB     107      PMPE     C38      CTL2    -0.180000       12.0110           0   0.00000     -0.301140E-02
     13285 MEMB     107      PMPE     H8X      HAL2     0.900000E-01   1.00800           0   0.00000     -0.301140E-02
     13286 MEMB     107      PMPE     H8Y      HAL2     0.900000E-01   1.00800           0   0.00000     -0.301140E-02
     13287 MEMB     107      PMPE     C39      CTL2    -0.180000       12.0110           0   0.00000     -0.301140E-02
     13288 MEMB     107      PMPE     H9X      HAL2     0.900000E-01   1.00800           0   0.00000     -0.301140E-02
     13289 MEMB     107      PMPE     H9Y      HAL2     0.900000E-01   1.00800           0   0.00000     -0.301140E-02
     13290 MEMB     107      PMPE     C310     CTL2    -0.180000       12.0110           0   0.00000     -0.301140E-02
     13291 MEMB     107      PMPE     H10X     HAL2     0.900000E-01   1.00800           0   0.00000     -0.301140E-02
     13292 MEMB     107      PMPE     H10Y     HAL2     0.900000E-01   1.00800           0   0.00000     -0.301140E-02
     13293 MEMB     107      PMPE     C311     CTL2    -0.180000       12.0110           0   0.00000     -0.301140E-02
     13294 MEMB     107      PMPE     H11X     HAL2     0.900000E-01   1.00800           0   0.00000     -0.301140E-02
     13295 MEMB     107      PMPE     H11Y     HAL2     0.900000E-01   1.00800           0   0.00000     -0.301140E-02
     13296 MEMB     107      PMPE     C312     CTL2    -0.180000       12.0110           0   0.00000     -0.301140E-02
     13297 MEMB     107      PMPE     H12X     HAL2     0.900000E-01   1.00800           0   0.00000     -0.301140E-02
     13298 MEMB     107      PMPE     H12Y     HAL2     0.900000E-01   1.00800           0   0.00000     -0.301140E-02
     13299 MEMB     107      PMPE     C313     CTL2    -0.180000       12.0110           0   0.00000     -0.301140E-02
     13300 MEMB     107      PMPE     H13X     HAL2     0.900000E-01   1.00800           0   0.00000     -0.301140E-02
     13301 MEMB     107      PMPE     H13Y     HAL2     0.900000E-01   1.00800           0   0.00000     -0.301140E-02
     13302 MEMB     107      PMPE     C314     CTL2    -0.180000       12.0110           0   0.00000     -0.301140E-02
     13303 MEMB     107      PMPE     H14X     HAL2     0.900000E-01   1.00800           0   0.00000     -0.301140E-02
     13304 MEMB     107      PMPE     H14Y     HAL2     0.900000E-01   1.00800           0   0.00000     -0.301140E-02
     13305 MEMB     107      PMPE     C315     CTL2    -0.180000       12.0110           0   0.00000     -0.301140E-02
     13306 MEMB     107      PMPE     H15X     HAL2     0.900000E-01   1.00800           0   0.00000     -0.301140E-02
     13307 MEMB     107      PMPE     H15Y     HAL2     0.900000E-01   1.00800           0   0.00000     -0.301140E-02
     13308 MEMB     107      PMPE     C316     CTL3    -0.270000       12.0110           0   0.00000     -0.301140E-02
     13309 MEMB     107      PMPE     H16X     HAL3     0.900000E-01   1.00800           0   0.00000     -0.301140E-02
     13310 MEMB     107      PMPE     H16Y     HAL3     0.900000E-01   1.00800           0   0.00000     -0.301140E-02
     13311 MEMB     107      PMPE     H16Z     HAL3     0.900000E-01   1.00800           0   0.00000     -0.301140E-02
     13312 MEMB     108      PMPE     N        NH3L    -0.300000       14.0070           0   0.00000     -0.301140E-02
     13313 MEMB     108      PMPE     HN1      HCL      0.330000       1.00800           0   0.00000     -0.301140E-02
     13314 MEMB     108      PMPE     HN2      HCL      0.330000       1.00800           0   0.00000     -0.301140E-02
     13315 MEMB     108      PMPE     HN3      HCL      0.330000       1.00800           0   0.00000     -0.301140E-02
     13316 MEMB     108      PMPE     C12      CTL2     0.130000       12.0110           0   0.00000     -0.301140E-02
     13317 MEMB     108      PMPE     H12A     HAL2     0.900000E-01   1.00800           0   0.00000     -0.301140E-02
     13318 MEMB     108      PMPE     H12B     HAL2     0.900000E-01   1.00800           0   0.00000     -0.301140E-02
     13319 MEMB     108      PMPE     C11      CTL2    -0.800000E-01   12.0110           0   0.00000     -0.301140E-02
     13320 MEMB     108      PMPE     H11A     HAL2     0.900000E-01   1.00800           0   0.00000     -0.301140E-02
     13321 MEMB     108      PMPE     H11B     HAL2     0.900000E-01   1.00800           0   0.00000     -0.301140E-02
     13322 MEMB     108      PMPE     P        PL        1.50000       30.9740           0   0.00000     -0.301140E-02
     13323 MEMB     108      PMPE     O13      O2L     -0.780000       15.9994           0   0.00000     -0.301140E-02
     13324 MEMB     108      PMPE     O14      O2L     -0.780000       15.9994           0   0.00000     -0.301140E-02
     13325 MEMB     108      PMPE     O11      OSLP    -0.570000       15.9994           0   0.00000     -0.301140E-02
     13326 MEMB     108      PMPE     O12      OSLP    -0.570000       15.9994           0   0.00000     -0.301140E-02
     13327 MEMB     108      PMPE     C1       CTL2    -0.800000E-01   12.0110           0   0.00000     -0.301140E-02
     13328 MEMB     108      PMPE     HA       HAL2     0.900000E-01   1.00800           0   0.00000     -0.301140E-02
     13329 MEMB     108      PMPE     HB       HAL2     0.900000E-01   1.00800           0   0.00000     -0.301140E-02
     13330 MEMB     108      PMPE     C2       CTL1     0.170000       12.0110           0   0.00000     -0.301140E-02
     13331 MEMB     108      PMPE     HS       HAL1     0.900000E-01   1.00800           0   0.00000     -0.301140E-02
     13332 MEMB     108      PMPE     O21      OSL     -0.490000       15.9994           0   0.00000     -0.301140E-02
     13333 MEMB     108      PMPE     C21      CL       0.900000       12.0110           0   0.00000     -0.301140E-02
     13334 MEMB     108      PMPE     O22      OBL     -0.630000       15.9994           0   0.00000     -0.301140E-02
     13335 MEMB     108      PMPE     C22      CTL2    -0.220000       12.0110           0   0.00000     -0.301140E-02
     13336 MEMB     108      PMPE     H2R      HAL2     0.900000E-01   1.00800           0   0.00000     -0.301140E-02
     13337 MEMB     108      PMPE     H2S      HAL2     0.900000E-01   1.00800           0   0.00000     -0.301140E-02
     13338 MEMB     108      PMPE     C3       CTL2     0.800000E-01   12.0110           0   0.00000     -0.301140E-02
     13339 MEMB     108      PMPE     HX       HAL2     0.900000E-01   1.00800           0   0.00000     -0.301140E-02
     13340 MEMB     108      PMPE     HY       HAL2     0.900000E-01   1.00800           0   0.00000     -0.301140E-02
     13341 MEMB     108      PMPE     O31      OSL     -0.490000       15.9994           0   0.00000     -0.301140E-02
     13342 MEMB     108      PMPE     C31      CL       0.900000       12.0110           0   0.00000     -0.301140E-02
     13343 MEMB     108      PMPE     O32      OBL     -0.630000       15.9994           0   0.00000     -0.301140E-02
     13344 MEMB     108      PMPE     C32      CTL2    -0.220000       12.0110           0   0.00000     -0.301140E-02
     13345 MEMB     108      PMPE     H2X      HAL2     0.900000E-01   1.00800           0   0.00000     -0.301140E-02
     13346 MEMB     108      PMPE     H2Y      HAL2     0.900000E-01   1.00800           0   0.00000     -0.301140E-02
     13347 MEMB     108      PMPE     C23      CTL2    -0.180000       12.0110           0   0.00000     -0.301140E-02
     13348 MEMB     108      PMPE     H3R      HAL2     0.900000E-01   1.00800           0   0.00000     -0.301140E-02
     13349 MEMB     108      PMPE     H3S      HAL2     0.900000E-01   1.00800           0   0.00000     -0.301140E-02
     13350 MEMB     108      PMPE     C24      CTL2    -0.180000       12.0110           0   0.00000     -0.301140E-02
     13351 MEMB     108      PMPE     H4R      HAL2     0.900000E-01   1.00800           0   0.00000     -0.301140E-02
     13352 MEMB     108      PMPE     H4S      HAL2     0.900000E-01   1.00800           0   0.00000     -0.301140E-02
     13353 MEMB     108      PMPE     C25      CTL2    -0.180000       12.0110           0   0.00000     -0.301140E-02
     13354 MEMB     108      PMPE     H5R      HAL2     0.900000E-01   1.00800           0   0.00000     -0.301140E-02
     13355 MEMB     108      PMPE     H5S      HAL2     0.900000E-01   1.00800           0   0.00000     -0.301140E-02
     13356 MEMB     108      PMPE     C26      CTL2    -0.180000       12.0110           0   0.00000     -0.301140E-02
     13357 MEMB     108      PMPE     H6R      HAL2     0.900000E-01   1.00800           0   0.00000     -0.301140E-02
     13358 MEMB     108      PMPE     H6S      HAL2     0.900000E-01   1.00800           0   0.00000     -0.301140E-02
     13359 MEMB     108      PMPE     C27      CTL2    -0.180000       12.0110           0   0.00000     -0.301140E-02
     13360 MEMB     108      PMPE     H7R      HAL2     0.900000E-01   1.00800           0   0.00000     -0.301140E-02
     13361 MEMB     108      PMPE     H7S      HAL2     0.900000E-01   1.00800           0   0.00000     -0.301140E-02
     13362 MEMB     108      PMPE     C28      CTL2    -0.180000       12.0110           0   0.00000     -0.301140E-02
     13363 MEMB     108      PMPE     H8R      HAL2     0.900000E-01   1.00800           0   0.00000     -0.301140E-02
     13364 MEMB     108      PMPE     H8S      HAL2     0.900000E-01   1.00800           0   0.00000     -0.301140E-02
     13365 MEMB     108      PMPE     C29      CG3RC1  -0.900000E-01   12.0110           0   0.00000     -0.301140E-02
     13366 MEMB     108      PMPE     H9R      HGA1     0.900000E-01   1.00800           0   0.00000     -0.301140E-02
     13367 MEMB     108      PMPE     C217     CG3C31  -0.180000       12.0110           0   0.00000     -0.301140E-02
     13368 MEMB     108      PMPE     H17R     HGA2     0.900000E-01   1.00800           0   0.00000     -0.301140E-02
     13369 MEMB     108      PMPE     H17S     HGA2     0.900000E-01   1.00800           0   0.00000     -0.301140E-02
     13370 MEMB     108      PMPE     C210     CG3RC1  -0.900000E-01   12.0110           0   0.00000     -0.301140E-02
     13371 MEMB     108      PMPE     H10R     HGA1     0.900000E-01   1.00800           0   0.00000     -0.301140E-02
     13372 MEMB     108      PMPE     C211     CTL2    -0.180000       12.0110           0   0.00000     -0.301140E-02
     13373 MEMB     108      PMPE     H11R     HAL2     0.900000E-01   1.00800           0   0.00000     -0.301140E-02
     13374 MEMB     108      PMPE     H11S     HAL2     0.900000E-01   1.00800           0   0.00000     -0.301140E-02
     13375 MEMB     108      PMPE     C212     CTL2    -0.180000       12.0110           0   0.00000     -0.301140E-02
     13376 MEMB     108      PMPE     H12R     HAL2     0.900000E-01   1.00800           0   0.00000     -0.301140E-02
     13377 MEMB     108      PMPE     H12S     HAL2     0.900000E-01   1.00800           0   0.00000     -0.301140E-02
     13378 MEMB     108      PMPE     C213     CTL2    -0.180000       12.0110           0   0.00000     -0.301140E-02
     13379 MEMB     108      PMPE     H13R     HAL2     0.900000E-01   1.00800           0   0.00000     -0.301140E-02
     13380 MEMB     108      PMPE     H13S     HAL2     0.900000E-01   1.00800           0   0.00000     -0.301140E-02
     13381 MEMB     108      PMPE     C214     CTL2    -0.180000       12.0110           0   0.00000     -0.301140E-02
     13382 MEMB     108      PMPE     H14R     HAL2     0.900000E-01   1.00800           0   0.00000     -0.301140E-02
     13383 MEMB     108      PMPE     H14S     HAL2     0.900000E-01   1.00800           0   0.00000     -0.301140E-02
     13384 MEMB     108      PMPE     C215     CTL2    -0.180000       12.0110           0   0.00000     -0.301140E-02
     13385 MEMB     108      PMPE     H15R     HAL2     0.900000E-01   1.00800           0   0.00000     -0.301140E-02
     13386 MEMB     108      PMPE     H15S     HAL2     0.900000E-01   1.00800           0   0.00000     -0.301140E-02
     13387 MEMB     108      PMPE     C216     CTL3    -0.270000       12.0110           0   0.00000     -0.301140E-02
     13388 MEMB     108      PMPE     H16R     HAL3     0.900000E-01   1.00800           0   0.00000     -0.301140E-02
     13389 MEMB     108      PMPE     H16S     HAL3     0.900000E-01   1.00800           0   0.00000     -0.301140E-02
     13390 MEMB     108      PMPE     H16T     HAL3     0.900000E-01   1.00800           0   0.00000     -0.301140E-02
     13391 MEMB     108      PMPE     C33      CTL2    -0.180000       12.0110           0   0.00000     -0.301140E-02
     13392 MEMB     108      PMPE     H3X      HAL2     0.900000E-01   1.00800           0   0.00000     -0.301140E-02
     13393 MEMB     108      PMPE     H3Y      HAL2     0.900000E-01   1.00800           0   0.00000     -0.301140E-02
     13394 MEMB     108      PMPE     C34      CTL2    -0.180000       12.0110           0   0.00000     -0.301140E-02
     13395 MEMB     108      PMPE     H4X      HAL2     0.900000E-01   1.00800           0   0.00000     -0.301140E-02
     13396 MEMB     108      PMPE     H4Y      HAL2     0.900000E-01   1.00800           0   0.00000     -0.301140E-02
     13397 MEMB     108      PMPE     C35      CTL2    -0.180000       12.0110           0   0.00000     -0.301140E-02
     13398 MEMB     108      PMPE     H5X      HAL2     0.900000E-01   1.00800           0   0.00000     -0.301140E-02
     13399 MEMB     108      PMPE     H5Y      HAL2     0.900000E-01   1.00800           0   0.00000     -0.301140E-02
     13400 MEMB     108      PMPE     C36      CTL2    -0.180000       12.0110           0   0.00000     -0.301140E-02
     13401 MEMB     108      PMPE     H6X      HAL2     0.900000E-01   1.00800           0   0.00000     -0.301140E-02
     13402 MEMB     108      PMPE     H6Y      HAL2     0.900000E-01   1.00800           0   0.00000     -0.301140E-02
     13403 MEMB     108      PMPE     C37      CTL2    -0.180000       12.0110           0   0.00000     -0.301140E-02
     13404 MEMB     108      PMPE     H7X      HAL2     0.900000E-01   1.00800           0   0.00000     -0.301140E-02
     13405 MEMB     108      PMPE     H7Y      HAL2     0.900000E-01   1.00800           0   0.00000     -0.301140E-02
     13406 MEMB     108      PMPE     C38      CTL2    -0.180000       12.0110           0   0.00000     -0.301140E-02
     13407 MEMB     108      PMPE     H8X      HAL2     0.900000E-01   1.00800           0   0.00000     -0.301140E-02
     13408 MEMB     108      PMPE     H8Y      HAL2     0.900000E-01   1.00800           0   0.00000     -0.301140E-02
     13409 MEMB     108      PMPE     C39      CTL2    -0.180000       12.0110           0   0.00000     -0.301140E-02
     13410 MEMB     108      PMPE     H9X      HAL2     0.900000E-01   1.00800           0   0.00000     -0.301140E-02
     13411 MEMB     108      PMPE     H9Y      HAL2     0.900000E-01   1.00800           0   0.00000     -0.301140E-02
     13412 MEMB     108      PMPE     C310     CTL2    -0.180000       12.0110           0   0.00000     -0.301140E-02
     13413 MEMB     108      PMPE     H10X     HAL2     0.900000E-01   1.00800           0   0.00000     -0.301140E-02
     13414 MEMB     108      PMPE     H10Y     HAL2     0.900000E-01   1.00800           0   0.00000     -0.301140E-02
     13415 MEMB     108      PMPE     C311     CTL2    -0.180000       12.0110           0   0.00000     -0.301140E-02
     13416 MEMB     108      PMPE     H11X     HAL2     0.900000E-01   1.00800           0   0.00000     -0.301140E-02
     13417 MEMB     108      PMPE     H11Y     HAL2     0.900000E-01   1.00800           0   0.00000     -0.301140E-02
     13418 MEMB     108      PMPE     C312     CTL2    -0.180000       12.0110           0   0.00000     -0.301140E-02
     13419 MEMB     108      PMPE     H12X     HAL2     0.900000E-01   1.00800           0   0.00000     -0.301140E-02
     13420 MEMB     108      PMPE     H12Y     HAL2     0.900000E-01   1.00800           0   0.00000     -0.301140E-02
     13421 MEMB     108      PMPE     C313     CTL2    -0.180000       12.0110           0   0.00000     -0.301140E-02
     13422 MEMB     108      PMPE     H13X     HAL2     0.900000E-01   1.00800           0   0.00000     -0.301140E-02
     13423 MEMB     108      PMPE     H13Y     HAL2     0.900000E-01   1.00800           0   0.00000     -0.301140E-02
     13424 MEMB     108      PMPE     C314     CTL2    -0.180000       12.0110           0   0.00000     -0.301140E-02
     13425 MEMB     108      PMPE     H14X     HAL2     0.900000E-01   1.00800           0   0.00000     -0.301140E-02
     13426 MEMB     108      PMPE     H14Y     HAL2     0.900000E-01   1.00800           0   0.00000     -0.301140E-02
     13427 MEMB     108      PMPE     C315     CTL2    -0.180000       12.0110           0   0.00000     -0.301140E-02
     13428 MEMB     108      PMPE     H15X     HAL2     0.900000E-01   1.00800           0   0.00000     -0.301140E-02
     13429 MEMB     108      PMPE     H15Y     HAL2     0.900000E-01   1.00800           0   0.00000     -0.301140E-02
     13430 MEMB     108      PMPE     C316     CTL3    -0.270000       12.0110           0   0.00000     -0.301140E-02
     13431 MEMB     108      PMPE     H16X     HAL3     0.900000E-01   1.00800           0   0.00000     -0.301140E-02
     13432 MEMB     108      PMPE     H16Y     HAL3     0.900000E-01   1.00800           0   0.00000     -0.301140E-02
     13433 MEMB     108      PMPE     H16Z     HAL3     0.900000E-01   1.00800           0   0.00000     -0.301140E-02
     13434 MEMB     109      PMPE     N        NH3L    -0.300000       14.0070           0   0.00000     -0.301140E-02
     13435 MEMB     109      PMPE     HN1      HCL      0.330000       1.00800           0   0.00000     -0.301140E-02
     13436 MEMB     109      PMPE     HN2      HCL      0.330000       1.00800           0   0.00000     -0.301140E-02
     13437 MEMB     109      PMPE     HN3      HCL      0.330000       1.00800           0   0.00000     -0.301140E-02
     13438 MEMB     109      PMPE     C12      CTL2     0.130000       12.0110           0   0.00000     -0.301140E-02
     13439 MEMB     109      PMPE     H12A     HAL2     0.900000E-01   1.00800           0   0.00000     -0.301140E-02
     13440 MEMB     109      PMPE     H12B     HAL2     0.900000E-01   1.00800           0   0.00000     -0.301140E-02
     13441 MEMB     109      PMPE     C11      CTL2    -0.800000E-01   12.0110           0   0.00000     -0.301140E-02
     13442 MEMB     109      PMPE     H11A     HAL2     0.900000E-01   1.00800           0   0.00000     -0.301140E-02
     13443 MEMB     109      PMPE     H11B     HAL2     0.900000E-01   1.00800           0   0.00000     -0.301140E-02
     13444 MEMB     109      PMPE     P        PL        1.50000       30.9740           0   0.00000     -0.301140E-02
     13445 MEMB     109      PMPE     O13      O2L     -0.780000       15.9994           0   0.00000     -0.301140E-02
     13446 MEMB     109      PMPE     O14      O2L     -0.780000       15.9994           0   0.00000     -0.301140E-02
     13447 MEMB     109      PMPE     O11      OSLP    -0.570000       15.9994           0   0.00000     -0.301140E-02
     13448 MEMB     109      PMPE     O12      OSLP    -0.570000       15.9994           0   0.00000     -0.301140E-02
     13449 MEMB     109      PMPE     C1       CTL2    -0.800000E-01   12.0110           0   0.00000     -0.301140E-02
     13450 MEMB     109      PMPE     HA       HAL2     0.900000E-01   1.00800           0   0.00000     -0.301140E-02
     13451 MEMB     109      PMPE     HB       HAL2     0.900000E-01   1.00800           0   0.00000     -0.301140E-02
     13452 MEMB     109      PMPE     C2       CTL1     0.170000       12.0110           0   0.00000     -0.301140E-02
     13453 MEMB     109      PMPE     HS       HAL1     0.900000E-01   1.00800           0   0.00000     -0.301140E-02
     13454 MEMB     109      PMPE     O21      OSL     -0.490000       15.9994           0   0.00000     -0.301140E-02
     13455 MEMB     109      PMPE     C21      CL       0.900000       12.0110           0   0.00000     -0.301140E-02
     13456 MEMB     109      PMPE     O22      OBL     -0.630000       15.9994           0   0.00000     -0.301140E-02
     13457 MEMB     109      PMPE     C22      CTL2    -0.220000       12.0110           0   0.00000     -0.301140E-02
     13458 MEMB     109      PMPE     H2R      HAL2     0.900000E-01   1.00800           0   0.00000     -0.301140E-02
     13459 MEMB     109      PMPE     H2S      HAL2     0.900000E-01   1.00800           0   0.00000     -0.301140E-02
     13460 MEMB     109      PMPE     C3       CTL2     0.800000E-01   12.0110           0   0.00000     -0.301140E-02
     13461 MEMB     109      PMPE     HX       HAL2     0.900000E-01   1.00800           0   0.00000     -0.301140E-02
     13462 MEMB     109      PMPE     HY       HAL2     0.900000E-01   1.00800           0   0.00000     -0.301140E-02
     13463 MEMB     109      PMPE     O31      OSL     -0.490000       15.9994           0   0.00000     -0.301140E-02
     13464 MEMB     109      PMPE     C31      CL       0.900000       12.0110           0   0.00000     -0.301140E-02
     13465 MEMB     109      PMPE     O32      OBL     -0.630000       15.9994           0   0.00000     -0.301140E-02
     13466 MEMB     109      PMPE     C32      CTL2    -0.220000       12.0110           0   0.00000     -0.301140E-02
     13467 MEMB     109      PMPE     H2X      HAL2     0.900000E-01   1.00800           0   0.00000     -0.301140E-02
     13468 MEMB     109      PMPE     H2Y      HAL2     0.900000E-01   1.00800           0   0.00000     -0.301140E-02
     13469 MEMB     109      PMPE     C23      CTL2    -0.180000       12.0110           0   0.00000     -0.301140E-02
     13470 MEMB     109      PMPE     H3R      HAL2     0.900000E-01   1.00800           0   0.00000     -0.301140E-02
     13471 MEMB     109      PMPE     H3S      HAL2     0.900000E-01   1.00800           0   0.00000     -0.301140E-02
     13472 MEMB     109      PMPE     C24      CTL2    -0.180000       12.0110           0   0.00000     -0.301140E-02
     13473 MEMB     109      PMPE     H4R      HAL2     0.900000E-01   1.00800           0   0.00000     -0.301140E-02
     13474 MEMB     109      PMPE     H4S      HAL2     0.900000E-01   1.00800           0   0.00000     -0.301140E-02
     13475 MEMB     109      PMPE     C25      CTL2    -0.180000       12.0110           0   0.00000     -0.301140E-02
     13476 MEMB     109      PMPE     H5R      HAL2     0.900000E-01   1.00800           0   0.00000     -0.301140E-02
     13477 MEMB     109      PMPE     H5S      HAL2     0.900000E-01   1.00800           0   0.00000     -0.301140E-02
     13478 MEMB     109      PMPE     C26      CTL2    -0.180000       12.0110           0   0.00000     -0.301140E-02
     13479 MEMB     109      PMPE     H6R      HAL2     0.900000E-01   1.00800           0   0.00000     -0.301140E-02
     13480 MEMB     109      PMPE     H6S      HAL2     0.900000E-01   1.00800           0   0.00000     -0.301140E-02
     13481 MEMB     109      PMPE     C27      CTL2    -0.180000       12.0110           0   0.00000     -0.301140E-02
     13482 MEMB     109      PMPE     H7R      HAL2     0.900000E-01   1.00800           0   0.00000     -0.301140E-02
     13483 MEMB     109      PMPE     H7S      HAL2     0.900000E-01   1.00800           0   0.00000     -0.301140E-02
     13484 MEMB     109      PMPE     C28      CTL2    -0.180000       12.0110           0   0.00000     -0.301140E-02
     13485 MEMB     109      PMPE     H8R      HAL2     0.900000E-01   1.00800           0   0.00000     -0.301140E-02
     13486 MEMB     109      PMPE     H8S      HAL2     0.900000E-01   1.00800           0   0.00000     -0.301140E-02
     13487 MEMB     109      PMPE     C29      CG3RC1  -0.900000E-01   12.0110           0   0.00000     -0.301140E-02
     13488 MEMB     109      PMPE     H9R      HGA1     0.900000E-01   1.00800           0   0.00000     -0.301140E-02
     13489 MEMB     109      PMPE     C217     CG3C31  -0.180000       12.0110           0   0.00000     -0.301140E-02
     13490 MEMB     109      PMPE     H17R     HGA2     0.900000E-01   1.00800           0   0.00000     -0.301140E-02
     13491 MEMB     109      PMPE     H17S     HGA2     0.900000E-01   1.00800           0   0.00000     -0.301140E-02
     13492 MEMB     109      PMPE     C210     CG3RC1  -0.900000E-01   12.0110           0   0.00000     -0.301140E-02
     13493 MEMB     109      PMPE     H10R     HGA1     0.900000E-01   1.00800           0   0.00000     -0.301140E-02
     13494 MEMB     109      PMPE     C211     CTL2    -0.180000       12.0110           0   0.00000     -0.301140E-02
     13495 MEMB     109      PMPE     H11R     HAL2     0.900000E-01   1.00800           0   0.00000     -0.301140E-02
     13496 MEMB     109      PMPE     H11S     HAL2     0.900000E-01   1.00800           0   0.00000     -0.301140E-02
     13497 MEMB     109      PMPE     C212     CTL2    -0.180000       12.0110           0   0.00000     -0.301140E-02
     13498 MEMB     109      PMPE     H12R     HAL2     0.900000E-01   1.00800           0   0.00000     -0.301140E-02
     13499 MEMB     109      PMPE     H12S     HAL2     0.900000E-01   1.00800           0   0.00000     -0.301140E-02
     13500 MEMB     109      PMPE     C213     CTL2    -0.180000       12.0110           0   0.00000     -0.301140E-02
     13501 MEMB     109      PMPE     H13R     HAL2     0.900000E-01   1.00800           0   0.00000     -0.301140E-02
     13502 MEMB     109      PMPE     H13S     HAL2     0.900000E-01   1.00800           0   0.00000     -0.301140E-02
     13503 MEMB     109      PMPE     C214     CTL2    -0.180000       12.0110           0   0.00000     -0.301140E-02
     13504 MEMB     109      PMPE     H14R     HAL2     0.900000E-01   1.00800           0   0.00000     -0.301140E-02
     13505 MEMB     109      PMPE     H14S     HAL2     0.900000E-01   1.00800           0   0.00000     -0.301140E-02
     13506 MEMB     109      PMPE     C215     CTL2    -0.180000       12.0110           0   0.00000     -0.301140E-02
     13507 MEMB     109      PMPE     H15R     HAL2     0.900000E-01   1.00800           0   0.00000     -0.301140E-02
     13508 MEMB     109      PMPE     H15S     HAL2     0.900000E-01   1.00800           0   0.00000     -0.301140E-02
     13509 MEMB     109      PMPE     C216     CTL3    -0.270000       12.0110           0   0.00000     -0.301140E-02
     13510 MEMB     109      PMPE     H16R     HAL3     0.900000E-01   1.00800           0   0.00000     -0.301140E-02
     13511 MEMB     109      PMPE     H16S     HAL3     0.900000E-01   1.00800           0   0.00000     -0.301140E-02
     13512 MEMB     109      PMPE     H16T     HAL3     0.900000E-01   1.00800           0   0.00000     -0.301140E-02
     13513 MEMB     109      PMPE     C33      CTL2    -0.180000       12.0110           0   0.00000     -0.301140E-02
     13514 MEMB     109      PMPE     H3X      HAL2     0.900000E-01   1.00800           0   0.00000     -0.301140E-02
     13515 MEMB     109      PMPE     H3Y      HAL2     0.900000E-01   1.00800           0   0.00000     -0.301140E-02
     13516 MEMB     109      PMPE     C34      CTL2    -0.180000       12.0110           0   0.00000     -0.301140E-02
     13517 MEMB     109      PMPE     H4X      HAL2     0.900000E-01   1.00800           0   0.00000     -0.301140E-02
     13518 MEMB     109      PMPE     H4Y      HAL2     0.900000E-01   1.00800           0   0.00000     -0.301140E-02
     13519 MEMB     109      PMPE     C35      CTL2    -0.180000       12.0110           0   0.00000     -0.301140E-02
     13520 MEMB     109      PMPE     H5X      HAL2     0.900000E-01   1.00800           0   0.00000     -0.301140E-02
     13521 MEMB     109      PMPE     H5Y      HAL2     0.900000E-01   1.00800           0   0.00000     -0.301140E-02
     13522 MEMB     109      PMPE     C36      CTL2    -0.180000       12.0110           0   0.00000     -0.301140E-02
     13523 MEMB     109      PMPE     H6X      HAL2     0.900000E-01   1.00800           0   0.00000     -0.301140E-02
     13524 MEMB     109      PMPE     H6Y      HAL2     0.900000E-01   1.00800           0   0.00000     -0.301140E-02
     13525 MEMB     109      PMPE     C37      CTL2    -0.180000       12.0110           0   0.00000     -0.301140E-02
     13526 MEMB     109      PMPE     H7X      HAL2     0.900000E-01   1.00800           0   0.00000     -0.301140E-02
     13527 MEMB     109      PMPE     H7Y      HAL2     0.900000E-01   1.00800           0   0.00000     -0.301140E-02
     13528 MEMB     109      PMPE     C38      CTL2    -0.180000       12.0110           0   0.00000     -0.301140E-02
     13529 MEMB     109      PMPE     H8X      HAL2     0.900000E-01   1.00800           0   0.00000     -0.301140E-02
     13530 MEMB     109      PMPE     H8Y      HAL2     0.900000E-01   1.00800           0   0.00000     -0.301140E-02
     13531 MEMB     109      PMPE     C39      CTL2    -0.180000       12.0110           0   0.00000     -0.301140E-02
     13532 MEMB     109      PMPE     H9X      HAL2     0.900000E-01   1.00800           0   0.00000     -0.301140E-02
     13533 MEMB     109      PMPE     H9Y      HAL2     0.900000E-01   1.00800           0   0.00000     -0.301140E-02
     13534 MEMB     109      PMPE     C310     CTL2    -0.180000       12.0110           0   0.00000     -0.301140E-02
     13535 MEMB     109      PMPE     H10X     HAL2     0.900000E-01   1.00800           0   0.00000     -0.301140E-02
     13536 MEMB     109      PMPE     H10Y     HAL2     0.900000E-01   1.00800           0   0.00000     -0.301140E-02
     13537 MEMB     109      PMPE     C311     CTL2    -0.180000       12.0110           0   0.00000     -0.301140E-02
     13538 MEMB     109      PMPE     H11X     HAL2     0.900000E-01   1.00800           0   0.00000     -0.301140E-02
     13539 MEMB     109      PMPE     H11Y     HAL2     0.900000E-01   1.00800           0   0.00000     -0.301140E-02
     13540 MEMB     109      PMPE     C312     CTL2    -0.180000       12.0110           0   0.00000     -0.301140E-02
     13541 MEMB     109      PMPE     H12X     HAL2     0.900000E-01   1.00800           0   0.00000     -0.301140E-02
     13542 MEMB     109      PMPE     H12Y     HAL2     0.900000E-01   1.00800           0   0.00000     -0.301140E-02
     13543 MEMB     109      PMPE     C313     CTL2    -0.180000       12.0110           0   0.00000     -0.301140E-02
     13544 MEMB     109      PMPE     H13X     HAL2     0.900000E-01   1.00800           0   0.00000     -0.301140E-02
     13545 MEMB     109      PMPE     H13Y     HAL2     0.900000E-01   1.00800           0   0.00000     -0.301140E-02
     13546 MEMB     109      PMPE     C314     CTL2    -0.180000       12.0110           0   0.00000     -0.301140E-02
     13547 MEMB     109      PMPE     H14X     HAL2     0.900000E-01   1.00800           0   0.00000     -0.301140E-02
     13548 MEMB     109      PMPE     H14Y     HAL2     0.900000E-01   1.00800           0   0.00000     -0.301140E-02
     13549 MEMB     109      PMPE     C315     CTL2    -0.180000       12.0110           0   0.00000     -0.301140E-02
     13550 MEMB     109      PMPE     H15X     HAL2     0.900000E-01   1.00800           0   0.00000     -0.301140E-02
     13551 MEMB     109      PMPE     H15Y     HAL2     0.900000E-01   1.00800           0   0.00000     -0.301140E-02
     13552 MEMB     109      PMPE     C316     CTL3    -0.270000       12.0110           0   0.00000     -0.301140E-02
     13553 MEMB     109      PMPE     H16X     HAL3     0.900000E-01   1.00800           0   0.00000     -0.301140E-02
     13554 MEMB     109      PMPE     H16Y     HAL3     0.900000E-01   1.00800           0   0.00000     -0.301140E-02
     13555 MEMB     109      PMPE     H16Z     HAL3     0.900000E-01   1.00800           0   0.00000     -0.301140E-02
     13556 MEMB     110      PMPE     N        NH3L    -0.300000       14.0070           0   0.00000     -0.301140E-02
     13557 MEMB     110      PMPE     HN1      HCL      0.330000       1.00800           0   0.00000     -0.301140E-02
     13558 MEMB     110      PMPE     HN2      HCL      0.330000       1.00800           0   0.00000     -0.301140E-02
     13559 MEMB     110      PMPE     HN3      HCL      0.330000       1.00800           0   0.00000     -0.301140E-02
     13560 MEMB     110      PMPE     C12      CTL2     0.130000       12.0110           0   0.00000     -0.301140E-02
     13561 MEMB     110      PMPE     H12A     HAL2     0.900000E-01   1.00800           0   0.00000     -0.301140E-02
     13562 MEMB     110      PMPE     H12B     HAL2     0.900000E-01   1.00800           0   0.00000     -0.301140E-02
     13563 MEMB     110      PMPE     C11      CTL2    -0.800000E-01   12.0110           0   0.00000     -0.301140E-02
     13564 MEMB     110      PMPE     H11A     HAL2     0.900000E-01   1.00800           0   0.00000     -0.301140E-02
     13565 MEMB     110      PMPE     H11B     HAL2     0.900000E-01   1.00800           0   0.00000     -0.301140E-02
     13566 MEMB     110      PMPE     P        PL        1.50000       30.9740           0   0.00000     -0.301140E-02
     13567 MEMB     110      PMPE     O13      O2L     -0.780000       15.9994           0   0.00000     -0.301140E-02
     13568 MEMB     110      PMPE     O14      O2L     -0.780000       15.9994           0   0.00000     -0.301140E-02
     13569 MEMB     110      PMPE     O11      OSLP    -0.570000       15.9994           0   0.00000     -0.301140E-02
     13570 MEMB     110      PMPE     O12      OSLP    -0.570000       15.9994           0   0.00000     -0.301140E-02
     13571 MEMB     110      PMPE     C1       CTL2    -0.800000E-01   12.0110           0   0.00000     -0.301140E-02
     13572 MEMB     110      PMPE     HA       HAL2     0.900000E-01   1.00800           0   0.00000     -0.301140E-02
     13573 MEMB     110      PMPE     HB       HAL2     0.900000E-01   1.00800           0   0.00000     -0.301140E-02
     13574 MEMB     110      PMPE     C2       CTL1     0.170000       12.0110           0   0.00000     -0.301140E-02
     13575 MEMB     110      PMPE     HS       HAL1     0.900000E-01   1.00800           0   0.00000     -0.301140E-02
     13576 MEMB     110      PMPE     O21      OSL     -0.490000       15.9994           0   0.00000     -0.301140E-02
     13577 MEMB     110      PMPE     C21      CL       0.900000       12.0110           0   0.00000     -0.301140E-02
     13578 MEMB     110      PMPE     O22      OBL     -0.630000       15.9994           0   0.00000     -0.301140E-02
     13579 MEMB     110      PMPE     C22      CTL2    -0.220000       12.0110           0   0.00000     -0.301140E-02
     13580 MEMB     110      PMPE     H2R      HAL2     0.900000E-01   1.00800           0   0.00000     -0.301140E-02
     13581 MEMB     110      PMPE     H2S      HAL2     0.900000E-01   1.00800           0   0.00000     -0.301140E-02
     13582 MEMB     110      PMPE     C3       CTL2     0.800000E-01   12.0110           0   0.00000     -0.301140E-02
     13583 MEMB     110      PMPE     HX       HAL2     0.900000E-01   1.00800           0   0.00000     -0.301140E-02
     13584 MEMB     110      PMPE     HY       HAL2     0.900000E-01   1.00800           0   0.00000     -0.301140E-02
     13585 MEMB     110      PMPE     O31      OSL     -0.490000       15.9994           0   0.00000     -0.301140E-02
     13586 MEMB     110      PMPE     C31      CL       0.900000       12.0110           0   0.00000     -0.301140E-02
     13587 MEMB     110      PMPE     O32      OBL     -0.630000       15.9994           0   0.00000     -0.301140E-02
     13588 MEMB     110      PMPE     C32      CTL2    -0.220000       12.0110           0   0.00000     -0.301140E-02
     13589 MEMB     110      PMPE     H2X      HAL2     0.900000E-01   1.00800           0   0.00000     -0.301140E-02
     13590 MEMB     110      PMPE     H2Y      HAL2     0.900000E-01   1.00800           0   0.00000     -0.301140E-02
     13591 MEMB     110      PMPE     C23      CTL2    -0.180000       12.0110           0   0.00000     -0.301140E-02
     13592 MEMB     110      PMPE     H3R      HAL2     0.900000E-01   1.00800           0   0.00000     -0.301140E-02
     13593 MEMB     110      PMPE     H3S      HAL2     0.900000E-01   1.00800           0   0.00000     -0.301140E-02
     13594 MEMB     110      PMPE     C24      CTL2    -0.180000       12.0110           0   0.00000     -0.301140E-02
     13595 MEMB     110      PMPE     H4R      HAL2     0.900000E-01   1.00800           0   0.00000     -0.301140E-02
     13596 MEMB     110      PMPE     H4S      HAL2     0.900000E-01   1.00800           0   0.00000     -0.301140E-02
     13597 MEMB     110      PMPE     C25      CTL2    -0.180000       12.0110           0   0.00000     -0.301140E-02
     13598 MEMB     110      PMPE     H5R      HAL2     0.900000E-01   1.00800           0   0.00000     -0.301140E-02
     13599 MEMB     110      PMPE     H5S      HAL2     0.900000E-01   1.00800           0   0.00000     -0.301140E-02
     13600 MEMB     110      PMPE     C26      CTL2    -0.180000       12.0110           0   0.00000     -0.301140E-02
     13601 MEMB     110      PMPE     H6R      HAL2     0.900000E-01   1.00800           0   0.00000     -0.301140E-02
     13602 MEMB     110      PMPE     H6S      HAL2     0.900000E-01   1.00800           0   0.00000     -0.301140E-02
     13603 MEMB     110      PMPE     C27      CTL2    -0.180000       12.0110           0   0.00000     -0.301140E-02
     13604 MEMB     110      PMPE     H7R      HAL2     0.900000E-01   1.00800           0   0.00000     -0.301140E-02
     13605 MEMB     110      PMPE     H7S      HAL2     0.900000E-01   1.00800           0   0.00000     -0.301140E-02
     13606 MEMB     110      PMPE     C28      CTL2    -0.180000       12.0110           0   0.00000     -0.301140E-02
     13607 MEMB     110      PMPE     H8R      HAL2     0.900000E-01   1.00800           0   0.00000     -0.301140E-02
     13608 MEMB     110      PMPE     H8S      HAL2     0.900000E-01   1.00800           0   0.00000     -0.301140E-02
     13609 MEMB     110      PMPE     C29      CG3RC1  -0.900000E-01   12.0110           0   0.00000     -0.301140E-02
     13610 MEMB     110      PMPE     H9R      HGA1     0.900000E-01   1.00800           0   0.00000     -0.301140E-02
     13611 MEMB     110      PMPE     C217     CG3C31  -0.180000       12.0110           0   0.00000     -0.301140E-02
     13612 MEMB     110      PMPE     H17R     HGA2     0.900000E-01   1.00800           0   0.00000     -0.301140E-02
     13613 MEMB     110      PMPE     H17S     HGA2     0.900000E-01   1.00800           0   0.00000     -0.301140E-02
     13614 MEMB     110      PMPE     C210     CG3RC1  -0.900000E-01   12.0110           0   0.00000     -0.301140E-02
     13615 MEMB     110      PMPE     H10R     HGA1     0.900000E-01   1.00800           0   0.00000     -0.301140E-02
     13616 MEMB     110      PMPE     C211     CTL2    -0.180000       12.0110           0   0.00000     -0.301140E-02
     13617 MEMB     110      PMPE     H11R     HAL2     0.900000E-01   1.00800           0   0.00000     -0.301140E-02
     13618 MEMB     110      PMPE     H11S     HAL2     0.900000E-01   1.00800           0   0.00000     -0.301140E-02
     13619 MEMB     110      PMPE     C212     CTL2    -0.180000       12.0110           0   0.00000     -0.301140E-02
     13620 MEMB     110      PMPE     H12R     HAL2     0.900000E-01   1.00800           0   0.00000     -0.301140E-02
     13621 MEMB     110      PMPE     H12S     HAL2     0.900000E-01   1.00800           0   0.00000     -0.301140E-02
     13622 MEMB     110      PMPE     C213     CTL2    -0.180000       12.0110           0   0.00000     -0.301140E-02
     13623 MEMB     110      PMPE     H13R     HAL2     0.900000E-01   1.00800           0   0.00000     -0.301140E-02
     13624 MEMB     110      PMPE     H13S     HAL2     0.900000E-01   1.00800           0   0.00000     -0.301140E-02
     13625 MEMB     110      PMPE     C214     CTL2    -0.180000       12.0110           0   0.00000     -0.301140E-02
     13626 MEMB     110      PMPE     H14R     HAL2     0.900000E-01   1.00800           0   0.00000     -0.301140E-02
     13627 MEMB     110      PMPE     H14S     HAL2     0.900000E-01   1.00800           0   0.00000     -0.301140E-02
     13628 MEMB     110      PMPE     C215     CTL2    -0.180000       12.0110           0   0.00000     -0.301140E-02
     13629 MEMB     110      PMPE     H15R     HAL2     0.900000E-01   1.00800           0   0.00000     -0.301140E-02
     13630 MEMB     110      PMPE     H15S     HAL2     0.900000E-01   1.00800           0   0.00000     -0.301140E-02
     13631 MEMB     110      PMPE     C216     CTL3    -0.270000       12.0110           0   0.00000     -0.301140E-02
     13632 MEMB     110      PMPE     H16R     HAL3     0.900000E-01   1.00800           0   0.00000     -0.301140E-02
     13633 MEMB     110      PMPE     H16S     HAL3     0.900000E-01   1.00800           0   0.00000     -0.301140E-02
     13634 MEMB     110      PMPE     H16T     HAL3     0.900000E-01   1.00800           0   0.00000     -0.301140E-02
     13635 MEMB     110      PMPE     C33      CTL2    -0.180000       12.0110           0   0.00000     -0.301140E-02
     13636 MEMB     110      PMPE     H3X      HAL2     0.900000E-01   1.00800           0   0.00000     -0.301140E-02
     13637 MEMB     110      PMPE     H3Y      HAL2     0.900000E-01   1.00800           0   0.00000     -0.301140E-02
     13638 MEMB     110      PMPE     C34      CTL2    -0.180000       12.0110           0   0.00000     -0.301140E-02
     13639 MEMB     110      PMPE     H4X      HAL2     0.900000E-01   1.00800           0   0.00000     -0.301140E-02
     13640 MEMB     110      PMPE     H4Y      HAL2     0.900000E-01   1.00800           0   0.00000     -0.301140E-02
     13641 MEMB     110      PMPE     C35      CTL2    -0.180000       12.0110           0   0.00000     -0.301140E-02
     13642 MEMB     110      PMPE     H5X      HAL2     0.900000E-01   1.00800           0   0.00000     -0.301140E-02
     13643 MEMB     110      PMPE     H5Y      HAL2     0.900000E-01   1.00800           0   0.00000     -0.301140E-02
     13644 MEMB     110      PMPE     C36      CTL2    -0.180000       12.0110           0   0.00000     -0.301140E-02
     13645 MEMB     110      PMPE     H6X      HAL2     0.900000E-01   1.00800           0   0.00000     -0.301140E-02
     13646 MEMB     110      PMPE     H6Y      HAL2     0.900000E-01   1.00800           0   0.00000     -0.301140E-02
     13647 MEMB     110      PMPE     C37      CTL2    -0.180000       12.0110           0   0.00000     -0.301140E-02
     13648 MEMB     110      PMPE     H7X      HAL2     0.900000E-01   1.00800           0   0.00000     -0.301140E-02
     13649 MEMB     110      PMPE     H7Y      HAL2     0.900000E-01   1.00800           0   0.00000     -0.301140E-02
     13650 MEMB     110      PMPE     C38      CTL2    -0.180000       12.0110           0   0.00000     -0.301140E-02
     13651 MEMB     110      PMPE     H8X      HAL2     0.900000E-01   1.00800           0   0.00000     -0.301140E-02
     13652 MEMB     110      PMPE     H8Y      HAL2     0.900000E-01   1.00800           0   0.00000     -0.301140E-02
     13653 MEMB     110      PMPE     C39      CTL2    -0.180000       12.0110           0   0.00000     -0.301140E-02
     13654 MEMB     110      PMPE     H9X      HAL2     0.900000E-01   1.00800           0   0.00000     -0.301140E-02
     13655 MEMB     110      PMPE     H9Y      HAL2     0.900000E-01   1.00800           0   0.00000     -0.301140E-02
     13656 MEMB     110      PMPE     C310     CTL2    -0.180000       12.0110           0   0.00000     -0.301140E-02
     13657 MEMB     110      PMPE     H10X     HAL2     0.900000E-01   1.00800           0   0.00000     -0.301140E-02
     13658 MEMB     110      PMPE     H10Y     HAL2     0.900000E-01   1.00800           0   0.00000     -0.301140E-02
     13659 MEMB     110      PMPE     C311     CTL2    -0.180000       12.0110           0   0.00000     -0.301140E-02
     13660 MEMB     110      PMPE     H11X     HAL2     0.900000E-01   1.00800           0   0.00000     -0.301140E-02
     13661 MEMB     110      PMPE     H11Y     HAL2     0.900000E-01   1.00800           0   0.00000     -0.301140E-02
     13662 MEMB     110      PMPE     C312     CTL2    -0.180000       12.0110           0   0.00000     -0.301140E-02
     13663 MEMB     110      PMPE     H12X     HAL2     0.900000E-01   1.00800           0   0.00000     -0.301140E-02
     13664 MEMB     110      PMPE     H12Y     HAL2     0.900000E-01   1.00800           0   0.00000     -0.301140E-02
     13665 MEMB     110      PMPE     C313     CTL2    -0.180000       12.0110           0   0.00000     -0.301140E-02
     13666 MEMB     110      PMPE     H13X     HAL2     0.900000E-01   1.00800           0   0.00000     -0.301140E-02
     13667 MEMB     110      PMPE     H13Y     HAL2     0.900000E-01   1.00800           0   0.00000     -0.301140E-02
     13668 MEMB     110      PMPE     C314     CTL2    -0.180000       12.0110           0   0.00000     -0.301140E-02
     13669 MEMB     110      PMPE     H14X     HAL2     0.900000E-01   1.00800           0   0.00000     -0.301140E-02
     13670 MEMB     110      PMPE     H14Y     HAL2     0.900000E-01   1.00800           0   0.00000     -0.301140E-02
     13671 MEMB     110      PMPE     C315     CTL2    -0.180000       12.0110           0   0.00000     -0.301140E-02
     13672 MEMB     110      PMPE     H15X     HAL2     0.900000E-01   1.00800           0   0.00000     -0.301140E-02
     13673 MEMB     110      PMPE     H15Y     HAL2     0.900000E-01   1.00800           0   0.00000     -0.301140E-02
     13674 MEMB     110      PMPE     C316     CTL3    -0.270000       12.0110           0   0.00000     -0.301140E-02
     13675 MEMB     110      PMPE     H16X     HAL3     0.900000E-01   1.00800           0   0.00000     -0.301140E-02
     13676 MEMB     110      PMPE     H16Y     HAL3     0.900000E-01   1.00800           0   0.00000     -0.301140E-02
     13677 MEMB     110      PMPE     H16Z     HAL3     0.900000E-01   1.00800           0   0.00000     -0.301140E-02
     13678 MEMB     111      PMPE     N        NH3L    -0.300000       14.0070           0   0.00000     -0.301140E-02
     13679 MEMB     111      PMPE     HN1      HCL      0.330000       1.00800           0   0.00000     -0.301140E-02
     13680 MEMB     111      PMPE     HN2      HCL      0.330000       1.00800           0   0.00000     -0.301140E-02
     13681 MEMB     111      PMPE     HN3      HCL      0.330000       1.00800           0   0.00000     -0.301140E-02
     13682 MEMB     111      PMPE     C12      CTL2     0.130000       12.0110           0   0.00000     -0.301140E-02
     13683 MEMB     111      PMPE     H12A     HAL2     0.900000E-01   1.00800           0   0.00000     -0.301140E-02
     13684 MEMB     111      PMPE     H12B     HAL2     0.900000E-01   1.00800           0   0.00000     -0.301140E-02
     13685 MEMB     111      PMPE     C11      CTL2    -0.800000E-01   12.0110           0   0.00000     -0.301140E-02
     13686 MEMB     111      PMPE     H11A     HAL2     0.900000E-01   1.00800           0   0.00000     -0.301140E-02
     13687 MEMB     111      PMPE     H11B     HAL2     0.900000E-01   1.00800           0   0.00000     -0.301140E-02
     13688 MEMB     111      PMPE     P        PL        1.50000       30.9740           0   0.00000     -0.301140E-02
     13689 MEMB     111      PMPE     O13      O2L     -0.780000       15.9994           0   0.00000     -0.301140E-02
     13690 MEMB     111      PMPE     O14      O2L     -0.780000       15.9994           0   0.00000     -0.301140E-02
     13691 MEMB     111      PMPE     O11      OSLP    -0.570000       15.9994           0   0.00000     -0.301140E-02
     13692 MEMB     111      PMPE     O12      OSLP    -0.570000       15.9994           0   0.00000     -0.301140E-02
     13693 MEMB     111      PMPE     C1       CTL2    -0.800000E-01   12.0110           0   0.00000     -0.301140E-02
     13694 MEMB     111      PMPE     HA       HAL2     0.900000E-01   1.00800           0   0.00000     -0.301140E-02
     13695 MEMB     111      PMPE     HB       HAL2     0.900000E-01   1.00800           0   0.00000     -0.301140E-02
     13696 MEMB     111      PMPE     C2       CTL1     0.170000       12.0110           0   0.00000     -0.301140E-02
     13697 MEMB     111      PMPE     HS       HAL1     0.900000E-01   1.00800           0   0.00000     -0.301140E-02
     13698 MEMB     111      PMPE     O21      OSL     -0.490000       15.9994           0   0.00000     -0.301140E-02
     13699 MEMB     111      PMPE     C21      CL       0.900000       12.0110           0   0.00000     -0.301140E-02
     13700 MEMB     111      PMPE     O22      OBL     -0.630000       15.9994           0   0.00000     -0.301140E-02
     13701 MEMB     111      PMPE     C22      CTL2    -0.220000       12.0110           0   0.00000     -0.301140E-02
     13702 MEMB     111      PMPE     H2R      HAL2     0.900000E-01   1.00800           0   0.00000     -0.301140E-02
     13703 MEMB     111      PMPE     H2S      HAL2     0.900000E-01   1.00800           0   0.00000     -0.301140E-02
     13704 MEMB     111      PMPE     C3       CTL2     0.800000E-01   12.0110           0   0.00000     -0.301140E-02
     13705 MEMB     111      PMPE     HX       HAL2     0.900000E-01   1.00800           0   0.00000     -0.301140E-02
     13706 MEMB     111      PMPE     HY       HAL2     0.900000E-01   1.00800           0   0.00000     -0.301140E-02
     13707 MEMB     111      PMPE     O31      OSL     -0.490000       15.9994           0   0.00000     -0.301140E-02
     13708 MEMB     111      PMPE     C31      CL       0.900000       12.0110           0   0.00000     -0.301140E-02
     13709 MEMB     111      PMPE     O32      OBL     -0.630000       15.9994           0   0.00000     -0.301140E-02
     13710 MEMB     111      PMPE     C32      CTL2    -0.220000       12.0110           0   0.00000     -0.301140E-02
     13711 MEMB     111      PMPE     H2X      HAL2     0.900000E-01   1.00800           0   0.00000     -0.301140E-02
     13712 MEMB     111      PMPE     H2Y      HAL2     0.900000E-01   1.00800           0   0.00000     -0.301140E-02
     13713 MEMB     111      PMPE     C23      CTL2    -0.180000       12.0110           0   0.00000     -0.301140E-02
     13714 MEMB     111      PMPE     H3R      HAL2     0.900000E-01   1.00800           0   0.00000     -0.301140E-02
     13715 MEMB     111      PMPE     H3S      HAL2     0.900000E-01   1.00800           0   0.00000     -0.301140E-02
     13716 MEMB     111      PMPE     C24      CTL2    -0.180000       12.0110           0   0.00000     -0.301140E-02
     13717 MEMB     111      PMPE     H4R      HAL2     0.900000E-01   1.00800           0   0.00000     -0.301140E-02
     13718 MEMB     111      PMPE     H4S      HAL2     0.900000E-01   1.00800           0   0.00000     -0.301140E-02
     13719 MEMB     111      PMPE     C25      CTL2    -0.180000       12.0110           0   0.00000     -0.301140E-02
     13720 MEMB     111      PMPE     H5R      HAL2     0.900000E-01   1.00800           0   0.00000     -0.301140E-02
     13721 MEMB     111      PMPE     H5S      HAL2     0.900000E-01   1.00800           0   0.00000     -0.301140E-02
     13722 MEMB     111      PMPE     C26      CTL2    -0.180000       12.0110           0   0.00000     -0.301140E-02
     13723 MEMB     111      PMPE     H6R      HAL2     0.900000E-01   1.00800           0   0.00000     -0.301140E-02
     13724 MEMB     111      PMPE     H6S      HAL2     0.900000E-01   1.00800           0   0.00000     -0.301140E-02
     13725 MEMB     111      PMPE     C27      CTL2    -0.180000       12.0110           0   0.00000     -0.301140E-02
     13726 MEMB     111      PMPE     H7R      HAL2     0.900000E-01   1.00800           0   0.00000     -0.301140E-02
     13727 MEMB     111      PMPE     H7S      HAL2     0.900000E-01   1.00800           0   0.00000     -0.301140E-02
     13728 MEMB     111      PMPE     C28      CTL2    -0.180000       12.0110           0   0.00000     -0.301140E-02
     13729 MEMB     111      PMPE     H8R      HAL2     0.900000E-01   1.00800           0   0.00000     -0.301140E-02
     13730 MEMB     111      PMPE     H8S      HAL2     0.900000E-01   1.00800           0   0.00000     -0.301140E-02
     13731 MEMB     111      PMPE     C29      CG3RC1  -0.900000E-01   12.0110           0   0.00000     -0.301140E-02
     13732 MEMB     111      PMPE     H9R      HGA1     0.900000E-01   1.00800           0   0.00000     -0.301140E-02
     13733 MEMB     111      PMPE     C217     CG3C31  -0.180000       12.0110           0   0.00000     -0.301140E-02
     13734 MEMB     111      PMPE     H17R     HGA2     0.900000E-01   1.00800           0   0.00000     -0.301140E-02
     13735 MEMB     111      PMPE     H17S     HGA2     0.900000E-01   1.00800           0   0.00000     -0.301140E-02
     13736 MEMB     111      PMPE     C210     CG3RC1  -0.900000E-01   12.0110           0   0.00000     -0.301140E-02
     13737 MEMB     111      PMPE     H10R     HGA1     0.900000E-01   1.00800           0   0.00000     -0.301140E-02
     13738 MEMB     111      PMPE     C211     CTL2    -0.180000       12.0110           0   0.00000     -0.301140E-02
     13739 MEMB     111      PMPE     H11R     HAL2     0.900000E-01   1.00800           0   0.00000     -0.301140E-02
     13740 MEMB     111      PMPE     H11S     HAL2     0.900000E-01   1.00800           0   0.00000     -0.301140E-02
     13741 MEMB     111      PMPE     C212     CTL2    -0.180000       12.0110           0   0.00000     -0.301140E-02
     13742 MEMB     111      PMPE     H12R     HAL2     0.900000E-01   1.00800           0   0.00000     -0.301140E-02
     13743 MEMB     111      PMPE     H12S     HAL2     0.900000E-01   1.00800           0   0.00000     -0.301140E-02
     13744 MEMB     111      PMPE     C213     CTL2    -0.180000       12.0110           0   0.00000     -0.301140E-02
     13745 MEMB     111      PMPE     H13R     HAL2     0.900000E-01   1.00800           0   0.00000     -0.301140E-02
     13746 MEMB     111      PMPE     H13S     HAL2     0.900000E-01   1.00800           0   0.00000     -0.301140E-02
     13747 MEMB     111      PMPE     C214     CTL2    -0.180000       12.0110           0   0.00000     -0.301140E-02
     13748 MEMB     111      PMPE     H14R     HAL2     0.900000E-01   1.00800           0   0.00000     -0.301140E-02
     13749 MEMB     111      PMPE     H14S     HAL2     0.900000E-01   1.00800           0   0.00000     -0.301140E-02
     13750 MEMB     111      PMPE     C215     CTL2    -0.180000       12.0110           0   0.00000     -0.301140E-02
     13751 MEMB     111      PMPE     H15R     HAL2     0.900000E-01   1.00800           0   0.00000     -0.301140E-02
     13752 MEMB     111      PMPE     H15S     HAL2     0.900000E-01   1.00800           0   0.00000     -0.301140E-02
     13753 MEMB     111      PMPE     C216     CTL3    -0.270000       12.0110           0   0.00000     -0.301140E-02
     13754 MEMB     111      PMPE     H16R     HAL3     0.900000E-01   1.00800           0   0.00000     -0.301140E-02
     13755 MEMB     111      PMPE     H16S     HAL3     0.900000E-01   1.00800           0   0.00000     -0.301140E-02
     13756 MEMB     111      PMPE     H16T     HAL3     0.900000E-01   1.00800           0   0.00000     -0.301140E-02
     13757 MEMB     111      PMPE     C33      CTL2    -0.180000       12.0110           0   0.00000     -0.301140E-02
     13758 MEMB     111      PMPE     H3X      HAL2     0.900000E-01   1.00800           0   0.00000     -0.301140E-02
     13759 MEMB     111      PMPE     H3Y      HAL2     0.900000E-01   1.00800           0   0.00000     -0.301140E-02
     13760 MEMB     111      PMPE     C34      CTL2    -0.180000       12.0110           0   0.00000     -0.301140E-02
     13761 MEMB     111      PMPE     H4X      HAL2     0.900000E-01   1.00800           0   0.00000     -0.301140E-02
     13762 MEMB     111      PMPE     H4Y      HAL2     0.900000E-01   1.00800           0   0.00000     -0.301140E-02
     13763 MEMB     111      PMPE     C35      CTL2    -0.180000       12.0110           0   0.00000     -0.301140E-02
     13764 MEMB     111      PMPE     H5X      HAL2     0.900000E-01   1.00800           0   0.00000     -0.301140E-02
     13765 MEMB     111      PMPE     H5Y      HAL2     0.900000E-01   1.00800           0   0.00000     -0.301140E-02
     13766 MEMB     111      PMPE     C36      CTL2    -0.180000       12.0110           0   0.00000     -0.301140E-02
     13767 MEMB     111      PMPE     H6X      HAL2     0.900000E-01   1.00800           0   0.00000     -0.301140E-02
     13768 MEMB     111      PMPE     H6Y      HAL2     0.900000E-01   1.00800           0   0.00000     -0.301140E-02
     13769 MEMB     111      PMPE     C37      CTL2    -0.180000       12.0110           0   0.00000     -0.301140E-02
     13770 MEMB     111      PMPE     H7X      HAL2     0.900000E-01   1.00800           0   0.00000     -0.301140E-02
     13771 MEMB     111      PMPE     H7Y      HAL2     0.900000E-01   1.00800           0   0.00000     -0.301140E-02
     13772 MEMB     111      PMPE     C38      CTL2    -0.180000       12.0110           0   0.00000     -0.301140E-02
     13773 MEMB     111      PMPE     H8X      HAL2     0.900000E-01   1.00800           0   0.00000     -0.301140E-02
     13774 MEMB     111      PMPE     H8Y      HAL2     0.900000E-01   1.00800           0   0.00000     -0.301140E-02
     13775 MEMB     111      PMPE     C39      CTL2    -0.180000       12.0110           0   0.00000     -0.301140E-02
     13776 MEMB     111      PMPE     H9X      HAL2     0.900000E-01   1.00800           0   0.00000     -0.301140E-02
     13777 MEMB     111      PMPE     H9Y      HAL2     0.900000E-01   1.00800           0   0.00000     -0.301140E-02
     13778 MEMB     111      PMPE     C310     CTL2    -0.180000       12.0110           0   0.00000     -0.301140E-02
     13779 MEMB     111      PMPE     H10X     HAL2     0.900000E-01   1.00800           0   0.00000     -0.301140E-02
     13780 MEMB     111      PMPE     H10Y     HAL2     0.900000E-01   1.00800           0   0.00000     -0.301140E-02
     13781 MEMB     111      PMPE     C311     CTL2    -0.180000       12.0110           0   0.00000     -0.301140E-02
     13782 MEMB     111      PMPE     H11X     HAL2     0.900000E-01   1.00800           0   0.00000     -0.301140E-02
     13783 MEMB     111      PMPE     H11Y     HAL2     0.900000E-01   1.00800           0   0.00000     -0.301140E-02
     13784 MEMB     111      PMPE     C312     CTL2    -0.180000       12.0110           0   0.00000     -0.301140E-02
     13785 MEMB     111      PMPE     H12X     HAL2     0.900000E-01   1.00800           0   0.00000     -0.301140E-02
     13786 MEMB     111      PMPE     H12Y     HAL2     0.900000E-01   1.00800           0   0.00000     -0.301140E-02
     13787 MEMB     111      PMPE     C313     CTL2    -0.180000       12.0110           0   0.00000     -0.301140E-02
     13788 MEMB     111      PMPE     H13X     HAL2     0.900000E-01   1.00800           0   0.00000     -0.301140E-02
     13789 MEMB     111      PMPE     H13Y     HAL2     0.900000E-01   1.00800           0   0.00000     -0.301140E-02
     13790 MEMB     111      PMPE     C314     CTL2    -0.180000       12.0110           0   0.00000     -0.301140E-02
     13791 MEMB     111      PMPE     H14X     HAL2     0.900000E-01   1.00800           0   0.00000     -0.301140E-02
     13792 MEMB     111      PMPE     H14Y     HAL2     0.900000E-01   1.00800           0   0.00000     -0.301140E-02
     13793 MEMB     111      PMPE     C315     CTL2    -0.180000       12.0110           0   0.00000     -0.301140E-02
     13794 MEMB     111      PMPE     H15X     HAL2     0.900000E-01   1.00800           0   0.00000     -0.301140E-02
     13795 MEMB     111      PMPE     H15Y     HAL2     0.900000E-01   1.00800           0   0.00000     -0.301140E-02
     13796 MEMB     111      PMPE     C316     CTL3    -0.270000       12.0110           0   0.00000     -0.301140E-02
     13797 MEMB     111      PMPE     H16X     HAL3     0.900000E-01   1.00800           0   0.00000     -0.301140E-02
     13798 MEMB     111      PMPE     H16Y     HAL3     0.900000E-01   1.00800           0   0.00000     -0.301140E-02
     13799 MEMB     111      PMPE     H16Z     HAL3     0.900000E-01   1.00800           0   0.00000     -0.301140E-02
     13800 MEMB     112      QMPE     N        NH3L    -0.300000       14.0070           0   0.00000     -0.301140E-02
     13801 MEMB     112      QMPE     HN1      HCL      0.330000       1.00800           0   0.00000     -0.301140E-02
     13802 MEMB     112      QMPE     HN2      HCL      0.330000       1.00800           0   0.00000     -0.301140E-02
     13803 MEMB     112      QMPE     HN3      HCL      0.330000       1.00800           0   0.00000     -0.301140E-02
     13804 MEMB     112      QMPE     C12      CTL2     0.130000       12.0110           0   0.00000     -0.301140E-02
     13805 MEMB     112      QMPE     H12A     HAL2     0.900000E-01   1.00800           0   0.00000     -0.301140E-02
     13806 MEMB     112      QMPE     H12B     HAL2     0.900000E-01   1.00800           0   0.00000     -0.301140E-02
     13807 MEMB     112      QMPE     C11      CTL2    -0.800000E-01   12.0110           0   0.00000     -0.301140E-02
     13808 MEMB     112      QMPE     H11A     HAL2     0.900000E-01   1.00800           0   0.00000     -0.301140E-02
     13809 MEMB     112      QMPE     H11B     HAL2     0.900000E-01   1.00800           0   0.00000     -0.301140E-02
     13810 MEMB     112      QMPE     P        PL        1.50000       30.9740           0   0.00000     -0.301140E-02
     13811 MEMB     112      QMPE     O13      O2L     -0.780000       15.9994           0   0.00000     -0.301140E-02
     13812 MEMB     112      QMPE     O14      O2L     -0.780000       15.9994           0   0.00000     -0.301140E-02
     13813 MEMB     112      QMPE     O11      OSLP    -0.570000       15.9994           0   0.00000     -0.301140E-02
     13814 MEMB     112      QMPE     O12      OSLP    -0.570000       15.9994           0   0.00000     -0.301140E-02
     13815 MEMB     112      QMPE     C1       CTL2    -0.800000E-01   12.0110           0   0.00000     -0.301140E-02
     13816 MEMB     112      QMPE     HA       HAL2     0.900000E-01   1.00800           0   0.00000     -0.301140E-02
     13817 MEMB     112      QMPE     HB       HAL2     0.900000E-01   1.00800           0   0.00000     -0.301140E-02
     13818 MEMB     112      QMPE     C2       CTL1     0.170000       12.0110           0   0.00000     -0.301140E-02
     13819 MEMB     112      QMPE     HS       HAL1     0.900000E-01   1.00800           0   0.00000     -0.301140E-02
     13820 MEMB     112      QMPE     O21      OSL     -0.490000       15.9994           0   0.00000     -0.301140E-02
     13821 MEMB     112      QMPE     C21      CL       0.900000       12.0110           0   0.00000     -0.301140E-02
     13822 MEMB     112      QMPE     O22      OBL     -0.630000       15.9994           0   0.00000     -0.301140E-02
     13823 MEMB     112      QMPE     C22      CTL2    -0.220000       12.0110           0   0.00000     -0.301140E-02
     13824 MEMB     112      QMPE     H2R      HAL2     0.900000E-01   1.00800           0   0.00000     -0.301140E-02
     13825 MEMB     112      QMPE     H2S      HAL2     0.900000E-01   1.00800           0   0.00000     -0.301140E-02
     13826 MEMB     112      QMPE     C3       CTL2     0.800000E-01   12.0110           0   0.00000     -0.301140E-02
     13827 MEMB     112      QMPE     HX       HAL2     0.900000E-01   1.00800           0   0.00000     -0.301140E-02
     13828 MEMB     112      QMPE     HY       HAL2     0.900000E-01   1.00800           0   0.00000     -0.301140E-02
     13829 MEMB     112      QMPE     O31      OSL     -0.490000       15.9994           0   0.00000     -0.301140E-02
     13830 MEMB     112      QMPE     C31      CL       0.900000       12.0110           0   0.00000     -0.301140E-02
     13831 MEMB     112      QMPE     O32      OBL     -0.630000       15.9994           0   0.00000     -0.301140E-02
     13832 MEMB     112      QMPE     C32      CTL2    -0.220000       12.0110           0   0.00000     -0.301140E-02
     13833 MEMB     112      QMPE     H2X      HAL2     0.900000E-01   1.00800           0   0.00000     -0.301140E-02
     13834 MEMB     112      QMPE     H2Y      HAL2     0.900000E-01   1.00800           0   0.00000     -0.301140E-02
     13835 MEMB     112      QMPE     C23      CTL2    -0.180000       12.0110           0   0.00000     -0.301140E-02
     13836 MEMB     112      QMPE     H3R      HAL2     0.900000E-01   1.00800           0   0.00000     -0.301140E-02
     13837 MEMB     112      QMPE     H3S      HAL2     0.900000E-01   1.00800           0   0.00000     -0.301140E-02
     13838 MEMB     112      QMPE     C24      CTL2    -0.180000       12.0110           0   0.00000     -0.301140E-02
     13839 MEMB     112      QMPE     H4R      HAL2     0.900000E-01   1.00800           0   0.00000     -0.301140E-02
     13840 MEMB     112      QMPE     H4S      HAL2     0.900000E-01   1.00800           0   0.00000     -0.301140E-02
     13841 MEMB     112      QMPE     C25      CTL2    -0.180000       12.0110           0   0.00000     -0.301140E-02
     13842 MEMB     112      QMPE     H5R      HAL2     0.900000E-01   1.00800           0   0.00000     -0.301140E-02
     13843 MEMB     112      QMPE     H5S      HAL2     0.900000E-01   1.00800           0   0.00000     -0.301140E-02
     13844 MEMB     112      QMPE     C26      CTL2    -0.180000       12.0110           0   0.00000     -0.301140E-02
     13845 MEMB     112      QMPE     H6R      HAL2     0.900000E-01   1.00800           0   0.00000     -0.301140E-02
     13846 MEMB     112      QMPE     H6S      HAL2     0.900000E-01   1.00800           0   0.00000     -0.301140E-02
     13847 MEMB     112      QMPE     C27      CTL2    -0.180000       12.0110           0   0.00000     -0.301140E-02
     13848 MEMB     112      QMPE     H7R      HAL2     0.900000E-01   1.00800           0   0.00000     -0.301140E-02
     13849 MEMB     112      QMPE     H7S      HAL2     0.900000E-01   1.00800           0   0.00000     -0.301140E-02
     13850 MEMB     112      QMPE     C28      CTL2    -0.180000       12.0110           0   0.00000     -0.301140E-02
     13851 MEMB     112      QMPE     H8R      HAL2     0.900000E-01   1.00800           0   0.00000     -0.301140E-02
     13852 MEMB     112      QMPE     H8S      HAL2     0.900000E-01   1.00800           0   0.00000     -0.301140E-02
     13853 MEMB     112      QMPE     C29      CG3RC1  -0.900000E-01   12.0110           0   0.00000     -0.301140E-02
     13854 MEMB     112      QMPE     H9R      HGA1     0.900000E-01   1.00800           0   0.00000     -0.301140E-02
     13855 MEMB     112      QMPE     C217     CG3C31  -0.180000       12.0110           0   0.00000     -0.301140E-02
     13856 MEMB     112      QMPE     H17R     HGA2     0.900000E-01   1.00800           0   0.00000     -0.301140E-02
     13857 MEMB     112      QMPE     H17S     HGA2     0.900000E-01   1.00800           0   0.00000     -0.301140E-02
     13858 MEMB     112      QMPE     C210     CG3RC1  -0.900000E-01   12.0110           0   0.00000     -0.301140E-02
     13859 MEMB     112      QMPE     H10R     HGA1     0.900000E-01   1.00800           0   0.00000     -0.301140E-02
     13860 MEMB     112      QMPE     C211     CTL2    -0.180000       12.0110           0   0.00000     -0.301140E-02
     13861 MEMB     112      QMPE     H11R     HAL2     0.900000E-01   1.00800           0   0.00000     -0.301140E-02
     13862 MEMB     112      QMPE     H11S     HAL2     0.900000E-01   1.00800           0   0.00000     -0.301140E-02
     13863 MEMB     112      QMPE     C212     CTL2    -0.180000       12.0110           0   0.00000     -0.301140E-02
     13864 MEMB     112      QMPE     H12R     HAL2     0.900000E-01   1.00800           0   0.00000     -0.301140E-02
     13865 MEMB     112      QMPE     H12S     HAL2     0.900000E-01   1.00800           0   0.00000     -0.301140E-02
     13866 MEMB     112      QMPE     C213     CTL2    -0.180000       12.0110           0   0.00000     -0.301140E-02
     13867 MEMB     112      QMPE     H13R     HAL2     0.900000E-01   1.00800           0   0.00000     -0.301140E-02
     13868 MEMB     112      QMPE     H13S     HAL2     0.900000E-01   1.00800           0   0.00000     -0.301140E-02
     13869 MEMB     112      QMPE     C214     CTL2    -0.180000       12.0110           0   0.00000     -0.301140E-02
     13870 MEMB     112      QMPE     H14R     HAL2     0.900000E-01   1.00800           0   0.00000     -0.301140E-02
     13871 MEMB     112      QMPE     H14S     HAL2     0.900000E-01   1.00800           0   0.00000     -0.301140E-02
     13872 MEMB     112      QMPE     C215     CTL2    -0.180000       12.0110           0   0.00000     -0.301140E-02
     13873 MEMB     112      QMPE     H15R     HAL2     0.900000E-01   1.00800           0   0.00000     -0.301140E-02
     13874 MEMB     112      QMPE     H15S     HAL2     0.900000E-01   1.00800           0   0.00000     -0.301140E-02
     13875 MEMB     112      QMPE     C216     CTL3    -0.270000       12.0110           0   0.00000     -0.301140E-02
     13876 MEMB     112      QMPE     H16R     HAL3     0.900000E-01   1.00800           0   0.00000     -0.301140E-02
     13877 MEMB     112      QMPE     H16S     HAL3     0.900000E-01   1.00800           0   0.00000     -0.301140E-02
     13878 MEMB     112      QMPE     H16T     HAL3     0.900000E-01   1.00800           0   0.00000     -0.301140E-02
     13879 MEMB     112      QMPE     C33      CTL2    -0.180000       12.0110           0   0.00000     -0.301140E-02
     13880 MEMB     112      QMPE     H3X      HAL2     0.900000E-01   1.00800           0   0.00000     -0.301140E-02
     13881 MEMB     112      QMPE     H3Y      HAL2     0.900000E-01   1.00800           0   0.00000     -0.301140E-02
     13882 MEMB     112      QMPE     C34      CTL2    -0.180000       12.0110           0   0.00000     -0.301140E-02
     13883 MEMB     112      QMPE     H4X      HAL2     0.900000E-01   1.00800           0   0.00000     -0.301140E-02
     13884 MEMB     112      QMPE     H4Y      HAL2     0.900000E-01   1.00800           0   0.00000     -0.301140E-02
     13885 MEMB     112      QMPE     C35      CTL2    -0.180000       12.0110           0   0.00000     -0.301140E-02
     13886 MEMB     112      QMPE     H5X      HAL2     0.900000E-01   1.00800           0   0.00000     -0.301140E-02
     13887 MEMB     112      QMPE     H5Y      HAL2     0.900000E-01   1.00800           0   0.00000     -0.301140E-02
     13888 MEMB     112      QMPE     C36      CTL2    -0.180000       12.0110           0   0.00000     -0.301140E-02
     13889 MEMB     112      QMPE     H6X      HAL2     0.900000E-01   1.00800           0   0.00000     -0.301140E-02
     13890 MEMB     112      QMPE     H6Y      HAL2     0.900000E-01   1.00800           0   0.00000     -0.301140E-02
     13891 MEMB     112      QMPE     C37      CTL2    -0.180000       12.0110           0   0.00000     -0.301140E-02
     13892 MEMB     112      QMPE     H7X      HAL2     0.900000E-01   1.00800           0   0.00000     -0.301140E-02
     13893 MEMB     112      QMPE     H7Y      HAL2     0.900000E-01   1.00800           0   0.00000     -0.301140E-02
     13894 MEMB     112      QMPE     C38      CTL2    -0.180000       12.0110           0   0.00000     -0.301140E-02
     13895 MEMB     112      QMPE     H8X      HAL2     0.900000E-01   1.00800           0   0.00000     -0.301140E-02
     13896 MEMB     112      QMPE     H8Y      HAL2     0.900000E-01   1.00800           0   0.00000     -0.301140E-02
     13897 MEMB     112      QMPE     C39      CTL2    -0.180000       12.0110           0   0.00000     -0.301140E-02
     13898 MEMB     112      QMPE     H9X      HAL2     0.900000E-01   1.00800           0   0.00000     -0.301140E-02
     13899 MEMB     112      QMPE     H9Y      HAL2     0.900000E-01   1.00800           0   0.00000     -0.301140E-02
     13900 MEMB     112      QMPE     C310     CTL2    -0.180000       12.0110           0   0.00000     -0.301140E-02
     13901 MEMB     112      QMPE     H10X     HAL2     0.900000E-01   1.00800           0   0.00000     -0.301140E-02
     13902 MEMB     112      QMPE     H10Y     HAL2     0.900000E-01   1.00800           0   0.00000     -0.301140E-02
     13903 MEMB     112      QMPE     C311     CTL2    -0.180000       12.0110           0   0.00000     -0.301140E-02
     13904 MEMB     112      QMPE     H11X     HAL2     0.900000E-01   1.00800           0   0.00000     -0.301140E-02
     13905 MEMB     112      QMPE     H11Y     HAL2     0.900000E-01   1.00800           0   0.00000     -0.301140E-02
     13906 MEMB     112      QMPE     C312     CTL2    -0.180000       12.0110           0   0.00000     -0.301140E-02
     13907 MEMB     112      QMPE     H12X     HAL2     0.900000E-01   1.00800           0   0.00000     -0.301140E-02
     13908 MEMB     112      QMPE     H12Y     HAL2     0.900000E-01   1.00800           0   0.00000     -0.301140E-02
     13909 MEMB     112      QMPE     C313     CTL2    -0.180000       12.0110           0   0.00000     -0.301140E-02
     13910 MEMB     112      QMPE     H13X     HAL2     0.900000E-01   1.00800           0   0.00000     -0.301140E-02
     13911 MEMB     112      QMPE     H13Y     HAL2     0.900000E-01   1.00800           0   0.00000     -0.301140E-02
     13912 MEMB     112      QMPE     C314     CTL2    -0.180000       12.0110           0   0.00000     -0.301140E-02
     13913 MEMB     112      QMPE     H14X     HAL2     0.900000E-01   1.00800           0   0.00000     -0.301140E-02
     13914 MEMB     112      QMPE     H14Y     HAL2     0.900000E-01   1.00800           0   0.00000     -0.301140E-02
     13915 MEMB     112      QMPE     C315     CTL3    -0.270000       12.0110           0   0.00000     -0.301140E-02
     13916 MEMB     112      QMPE     H15X     HAL3     0.900000E-01   1.00800           0   0.00000     -0.301140E-02
     13917 MEMB     112      QMPE     H15Y     HAL3     0.900000E-01   1.00800           0   0.00000     -0.301140E-02
     13918 MEMB     112      QMPE     H15Z     HAL3     0.900000E-01   1.00800           0   0.00000     -0.301140E-02
     13919 MEMB     113      PMPG     C13      CTL2     0.500000E-01   12.0110           0   0.00000     -0.301140E-02
     13920 MEMB     113      PMPG     H13A     HAL2     0.900000E-01   1.00800           0   0.00000     -0.301140E-02
     13921 MEMB     113      PMPG     H13B     HAL2     0.900000E-01   1.00800           0   0.00000     -0.301140E-02
     13922 MEMB     113      PMPG     OC3      OHL     -0.660000       15.9994           0   0.00000     -0.301140E-02
     13923 MEMB     113      PMPG     HO3      HOL      0.430000       1.00800           0   0.00000     -0.301140E-02
     13924 MEMB     113      PMPG     C12      CTL1     0.140000       12.0110           0   0.00000     -0.301140E-02
     13925 MEMB     113      PMPG     H12A     HAL1     0.900000E-01   1.00800           0   0.00000     -0.301140E-02
     13926 MEMB     113      PMPG     OC2      OHL     -0.660000       15.9994           0   0.00000     -0.301140E-02
     13927 MEMB     113      PMPG     HO2      HOL      0.430000       1.00800           0   0.00000     -0.301140E-02
     13928 MEMB     113      PMPG     C11      CTL2    -0.800000E-01   12.0110           0   0.00000     -0.301140E-02
     13929 MEMB     113      PMPG     H11A     HAL2     0.900000E-01   1.00800           0   0.00000     -0.301140E-02
     13930 MEMB     113      PMPG     H11B     HAL2     0.900000E-01   1.00800           0   0.00000     -0.301140E-02
     13931 MEMB     113      PMPG     P        PL        1.50000       30.9740           0   0.00000     -0.301140E-02
     13932 MEMB     113      PMPG     O13      O2L     -0.780000       15.9994           0   0.00000     -0.301140E-02
     13933 MEMB     113      PMPG     O14      O2L     -0.780000       15.9994           0   0.00000     -0.301140E-02
     13934 MEMB     113      PMPG     O11      OSLP    -0.570000       15.9994           0   0.00000     -0.301140E-02
     13935 MEMB     113      PMPG     O12      OSLP    -0.570000       15.9994           0   0.00000     -0.301140E-02
     13936 MEMB     113      PMPG     C1       CTL2    -0.800000E-01   12.0110           0   0.00000     -0.301140E-02
     13937 MEMB     113      PMPG     HA       HAL2     0.900000E-01   1.00800           0   0.00000     -0.301140E-02
     13938 MEMB     113      PMPG     HB       HAL2     0.900000E-01   1.00800           0   0.00000     -0.301140E-02
     13939 MEMB     113      PMPG     C2       CTL1     0.170000       12.0110           0   0.00000     -0.301140E-02
     13940 MEMB     113      PMPG     HS       HAL1     0.900000E-01   1.00800           0   0.00000     -0.301140E-02
     13941 MEMB     113      PMPG     O21      OSL     -0.490000       15.9994           0   0.00000     -0.301140E-02
     13942 MEMB     113      PMPG     C21      CL       0.900000       12.0110           0   0.00000     -0.301140E-02
     13943 MEMB     113      PMPG     O22      OBL     -0.630000       15.9994           0   0.00000     -0.301140E-02
     13944 MEMB     113      PMPG     C22      CTL2    -0.220000       12.0110           0   0.00000     -0.301140E-02
     13945 MEMB     113      PMPG     H2R      HAL2     0.900000E-01   1.00800           0   0.00000     -0.301140E-02
     13946 MEMB     113      PMPG     H2S      HAL2     0.900000E-01   1.00800           0   0.00000     -0.301140E-02
     13947 MEMB     113      PMPG     C3       CTL2     0.800000E-01   12.0110           0   0.00000     -0.301140E-02
     13948 MEMB     113      PMPG     HX       HAL2     0.900000E-01   1.00800           0   0.00000     -0.301140E-02
     13949 MEMB     113      PMPG     HY       HAL2     0.900000E-01   1.00800           0   0.00000     -0.301140E-02
     13950 MEMB     113      PMPG     O31      OSL     -0.490000       15.9994           0   0.00000     -0.301140E-02
     13951 MEMB     113      PMPG     C31      CL       0.900000       12.0110           0   0.00000     -0.301140E-02
     13952 MEMB     113      PMPG     O32      OBL     -0.630000       15.9994           0   0.00000     -0.301140E-02
     13953 MEMB     113      PMPG     C32      CTL2    -0.220000       12.0110           0   0.00000     -0.301140E-02
     13954 MEMB     113      PMPG     H2X      HAL2     0.900000E-01   1.00800           0   0.00000     -0.301140E-02
     13955 MEMB     113      PMPG     H2Y      HAL2     0.900000E-01   1.00800           0   0.00000     -0.301140E-02
     13956 MEMB     113      PMPG     C23      CTL2    -0.180000       12.0110           0   0.00000     -0.301140E-02
     13957 MEMB     113      PMPG     H3R      HAL2     0.900000E-01   1.00800           0   0.00000     -0.301140E-02
     13958 MEMB     113      PMPG     H3S      HAL2     0.900000E-01   1.00800           0   0.00000     -0.301140E-02
     13959 MEMB     113      PMPG     C24      CTL2    -0.180000       12.0110           0   0.00000     -0.301140E-02
     13960 MEMB     113      PMPG     H4R      HAL2     0.900000E-01   1.00800           0   0.00000     -0.301140E-02
     13961 MEMB     113      PMPG     H4S      HAL2     0.900000E-01   1.00800           0   0.00000     -0.301140E-02
     13962 MEMB     113      PMPG     C25      CTL2    -0.180000       12.0110           0   0.00000     -0.301140E-02
     13963 MEMB     113      PMPG     H5R      HAL2     0.900000E-01   1.00800           0   0.00000     -0.301140E-02
     13964 MEMB     113      PMPG     H5S      HAL2     0.900000E-01   1.00800           0   0.00000     -0.301140E-02
     13965 MEMB     113      PMPG     C26      CTL2    -0.180000       12.0110           0   0.00000     -0.301140E-02
     13966 MEMB     113      PMPG     H6R      HAL2     0.900000E-01   1.00800           0   0.00000     -0.301140E-02
     13967 MEMB     113      PMPG     H6S      HAL2     0.900000E-01   1.00800           0   0.00000     -0.301140E-02
     13968 MEMB     113      PMPG     C27      CTL2    -0.180000       12.0110           0   0.00000     -0.301140E-02
     13969 MEMB     113      PMPG     H7R      HAL2     0.900000E-01   1.00800           0   0.00000     -0.301140E-02
     13970 MEMB     113      PMPG     H7S      HAL2     0.900000E-01   1.00800           0   0.00000     -0.301140E-02
     13971 MEMB     113      PMPG     C28      CTL2    -0.180000       12.0110           0   0.00000     -0.301140E-02
     13972 MEMB     113      PMPG     H8R      HAL2     0.900000E-01   1.00800           0   0.00000     -0.301140E-02
     13973 MEMB     113      PMPG     H8S      HAL2     0.900000E-01   1.00800           0   0.00000     -0.301140E-02
     13974 MEMB     113      PMPG     C29      CG3RC1  -0.900000E-01   12.0110           0   0.00000     -0.301140E-02
     13975 MEMB     113      PMPG     H9R      HGA1     0.900000E-01   1.00800           0   0.00000     -0.301140E-02
     13976 MEMB     113      PMPG     C217     CG3C31  -0.180000       12.0110           0   0.00000     -0.301140E-02
     13977 MEMB     113      PMPG     H17R     HGA2     0.900000E-01   1.00800           0   0.00000     -0.301140E-02
     13978 MEMB     113      PMPG     H17S     HGA2     0.900000E-01   1.00800           0   0.00000     -0.301140E-02
     13979 MEMB     113      PMPG     C210     CG3RC1  -0.900000E-01   12.0110           0   0.00000     -0.301140E-02
     13980 MEMB     113      PMPG     H10R     HGA1     0.900000E-01   1.00800           0   0.00000     -0.301140E-02
     13981 MEMB     113      PMPG     C211     CTL2    -0.180000       12.0110           0   0.00000     -0.301140E-02
     13982 MEMB     113      PMPG     H11R     HAL2     0.900000E-01   1.00800           0   0.00000     -0.301140E-02
     13983 MEMB     113      PMPG     H11S     HAL2     0.900000E-01   1.00800           0   0.00000     -0.301140E-02
     13984 MEMB     113      PMPG     C212     CTL2    -0.180000       12.0110           0   0.00000     -0.301140E-02
     13985 MEMB     113      PMPG     H12R     HAL2     0.900000E-01   1.00800           0   0.00000     -0.301140E-02
     13986 MEMB     113      PMPG     H12S     HAL2     0.900000E-01   1.00800           0   0.00000     -0.301140E-02
     13987 MEMB     113      PMPG     C213     CTL2    -0.180000       12.0110           0   0.00000     -0.301140E-02
     13988 MEMB     113      PMPG     H13R     HAL2     0.900000E-01   1.00800           0   0.00000     -0.301140E-02
     13989 MEMB     113      PMPG     H13S     HAL2     0.900000E-01   1.00800           0   0.00000     -0.301140E-02
     13990 MEMB     113      PMPG     C214     CTL2    -0.180000       12.0110           0   0.00000     -0.301140E-02
     13991 MEMB     113      PMPG     H14R     HAL2     0.900000E-01   1.00800           0   0.00000     -0.301140E-02
     13992 MEMB     113      PMPG     H14S     HAL2     0.900000E-01   1.00800           0   0.00000     -0.301140E-02
     13993 MEMB     113      PMPG     C215     CTL2    -0.180000       12.0110           0   0.00000     -0.301140E-02
     13994 MEMB     113      PMPG     H15R     HAL2     0.900000E-01   1.00800           0   0.00000     -0.301140E-02
     13995 MEMB     113      PMPG     H15S     HAL2     0.900000E-01   1.00800           0   0.00000     -0.301140E-02
     13996 MEMB     113      PMPG     C216     CTL3    -0.270000       12.0110           0   0.00000     -0.301140E-02
     13997 MEMB     113      PMPG     H16R     HAL3     0.900000E-01   1.00800           0   0.00000     -0.301140E-02
     13998 MEMB     113      PMPG     H16S     HAL3     0.900000E-01   1.00800           0   0.00000     -0.301140E-02
     13999 MEMB     113      PMPG     H16T     HAL3     0.900000E-01   1.00800           0   0.00000     -0.301140E-02
     14000 MEMB     113      PMPG     C33      CTL2    -0.180000       12.0110           0   0.00000     -0.301140E-02
     14001 MEMB     113      PMPG     H3X      HAL2     0.900000E-01   1.00800           0   0.00000     -0.301140E-02
     14002 MEMB     113      PMPG     H3Y      HAL2     0.900000E-01   1.00800           0   0.00000     -0.301140E-02
     14003 MEMB     113      PMPG     C34      CTL2    -0.180000       12.0110           0   0.00000     -0.301140E-02
     14004 MEMB     113      PMPG     H4X      HAL2     0.900000E-01   1.00800           0   0.00000     -0.301140E-02
     14005 MEMB     113      PMPG     H4Y      HAL2     0.900000E-01   1.00800           0   0.00000     -0.301140E-02
     14006 MEMB     113      PMPG     C35      CTL2    -0.180000       12.0110           0   0.00000     -0.301140E-02
     14007 MEMB     113      PMPG     H5X      HAL2     0.900000E-01   1.00800           0   0.00000     -0.301140E-02
     14008 MEMB     113      PMPG     H5Y      HAL2     0.900000E-01   1.00800           0   0.00000     -0.301140E-02
     14009 MEMB     113      PMPG     C36      CTL2    -0.180000       12.0110           0   0.00000     -0.301140E-02
     14010 MEMB     113      PMPG     H6X      HAL2     0.900000E-01   1.00800           0   0.00000     -0.301140E-02
     14011 MEMB     113      PMPG     H6Y      HAL2     0.900000E-01   1.00800           0   0.00000     -0.301140E-02
     14012 MEMB     113      PMPG     C37      CTL2    -0.180000       12.0110           0   0.00000     -0.301140E-02
     14013 MEMB     113      PMPG     H7X      HAL2     0.900000E-01   1.00800           0   0.00000     -0.301140E-02
     14014 MEMB     113      PMPG     H7Y      HAL2     0.900000E-01   1.00800           0   0.00000     -0.301140E-02
     14015 MEMB     113      PMPG     C38      CTL2    -0.180000       12.0110           0   0.00000     -0.301140E-02
     14016 MEMB     113      PMPG     H8X      HAL2     0.900000E-01   1.00800           0   0.00000     -0.301140E-02
     14017 MEMB     113      PMPG     H8Y      HAL2     0.900000E-01   1.00800           0   0.00000     -0.301140E-02
     14018 MEMB     113      PMPG     C39      CTL2    -0.180000       12.0110           0   0.00000     -0.301140E-02
     14019 MEMB     113      PMPG     H9X      HAL2     0.900000E-01   1.00800           0   0.00000     -0.301140E-02
     14020 MEMB     113      PMPG     H9Y      HAL2     0.900000E-01   1.00800           0   0.00000     -0.301140E-02
     14021 MEMB     113      PMPG     C310     CTL2    -0.180000       12.0110           0   0.00000     -0.301140E-02
     14022 MEMB     113      PMPG     H10X     HAL2     0.900000E-01   1.00800           0   0.00000     -0.301140E-02
     14023 MEMB     113      PMPG     H10Y     HAL2     0.900000E-01   1.00800           0   0.00000     -0.301140E-02
     14024 MEMB     113      PMPG     C311     CTL2    -0.180000       12.0110           0   0.00000     -0.301140E-02
     14025 MEMB     113      PMPG     H11X     HAL2     0.900000E-01   1.00800           0   0.00000     -0.301140E-02
     14026 MEMB     113      PMPG     H11Y     HAL2     0.900000E-01   1.00800           0   0.00000     -0.301140E-02
     14027 MEMB     113      PMPG     C312     CTL2    -0.180000       12.0110           0   0.00000     -0.301140E-02
     14028 MEMB     113      PMPG     H12X     HAL2     0.900000E-01   1.00800           0   0.00000     -0.301140E-02
     14029 MEMB     113      PMPG     H12Y     HAL2     0.900000E-01   1.00800           0   0.00000     -0.301140E-02
     14030 MEMB     113      PMPG     C313     CTL2    -0.180000       12.0110           0   0.00000     -0.301140E-02
     14031 MEMB     113      PMPG     H13X     HAL2     0.900000E-01   1.00800           0   0.00000     -0.301140E-02
     14032 MEMB     113      PMPG     H13Y     HAL2     0.900000E-01   1.00800           0   0.00000     -0.301140E-02
     14033 MEMB     113      PMPG     C314     CTL2    -0.180000       12.0110           0   0.00000     -0.301140E-02
     14034 MEMB     113      PMPG     H14X     HAL2     0.900000E-01   1.00800           0   0.00000     -0.301140E-02
     14035 MEMB     113      PMPG     H14Y     HAL2     0.900000E-01   1.00800           0   0.00000     -0.301140E-02
     14036 MEMB     113      PMPG     C315     CTL2    -0.180000       12.0110           0   0.00000     -0.301140E-02
     14037 MEMB     113      PMPG     H15X     HAL2     0.900000E-01   1.00800           0   0.00000     -0.301140E-02
     14038 MEMB     113      PMPG     H15Y     HAL2     0.900000E-01   1.00800           0   0.00000     -0.301140E-02
     14039 MEMB     113      PMPG     C316     CTL3    -0.270000       12.0110           0   0.00000     -0.301140E-02
     14040 MEMB     113      PMPG     H16X     HAL3     0.900000E-01   1.00800           0   0.00000     -0.301140E-02
     14041 MEMB     113      PMPG     H16Y     HAL3     0.900000E-01   1.00800           0   0.00000     -0.301140E-02
     14042 MEMB     113      PMPG     H16Z     HAL3     0.900000E-01   1.00800           0   0.00000     -0.301140E-02
     14043 MEMB     114      POPE     N        NH3L    -0.300000       14.0070           0   0.00000     -0.301140E-02
     14044 MEMB     114      POPE     HN1      HCL      0.330000       1.00800           0   0.00000     -0.301140E-02
     14045 MEMB     114      POPE     HN2      HCL      0.330000       1.00800           0   0.00000     -0.301140E-02
     14046 MEMB     114      POPE     HN3      HCL      0.330000       1.00800           0   0.00000     -0.301140E-02
     14047 MEMB     114      POPE     C12      CTL2     0.130000       12.0110           0   0.00000     -0.301140E-02
     14048 MEMB     114      POPE     H12A     HAL2     0.900000E-01   1.00800           0   0.00000     -0.301140E-02
     14049 MEMB     114      POPE     H12B     HAL2     0.900000E-01   1.00800           0   0.00000     -0.301140E-02
     14050 MEMB     114      POPE     C11      CTL2    -0.800000E-01   12.0110           0   0.00000     -0.301140E-02
     14051 MEMB     114      POPE     H11A     HAL2     0.900000E-01   1.00800           0   0.00000     -0.301140E-02
     14052 MEMB     114      POPE     H11B     HAL2     0.900000E-01   1.00800           0   0.00000     -0.301140E-02
     14053 MEMB     114      POPE     P        PL        1.50000       30.9740           0   0.00000     -0.301140E-02
     14054 MEMB     114      POPE     O13      O2L     -0.780000       15.9994           0   0.00000     -0.301140E-02
     14055 MEMB     114      POPE     O14      O2L     -0.780000       15.9994           0   0.00000     -0.301140E-02
     14056 MEMB     114      POPE     O11      OSLP    -0.570000       15.9994           0   0.00000     -0.301140E-02
     14057 MEMB     114      POPE     O12      OSLP    -0.570000       15.9994           0   0.00000     -0.301140E-02
     14058 MEMB     114      POPE     C1       CTL2    -0.800000E-01   12.0110           0   0.00000     -0.301140E-02
     14059 MEMB     114      POPE     HA       HAL2     0.900000E-01   1.00800           0   0.00000     -0.301140E-02
     14060 MEMB     114      POPE     HB       HAL2     0.900000E-01   1.00800           0   0.00000     -0.301140E-02
     14061 MEMB     114      POPE     C2       CTL1     0.170000       12.0110           0   0.00000     -0.301140E-02
     14062 MEMB     114      POPE     HS       HAL1     0.900000E-01   1.00800           0   0.00000     -0.301140E-02
     14063 MEMB     114      POPE     O21      OSL     -0.490000       15.9994           0   0.00000     -0.301140E-02
     14064 MEMB     114      POPE     C21      CL       0.900000       12.0110           0   0.00000     -0.301140E-02
     14065 MEMB     114      POPE     O22      OBL     -0.630000       15.9994           0   0.00000     -0.301140E-02
     14066 MEMB     114      POPE     C22      CTL2    -0.220000       12.0110           0   0.00000     -0.301140E-02
     14067 MEMB     114      POPE     H2R      HAL2     0.900000E-01   1.00800           0   0.00000     -0.301140E-02
     14068 MEMB     114      POPE     H2S      HAL2     0.900000E-01   1.00800           0   0.00000     -0.301140E-02
     14069 MEMB     114      POPE     C3       CTL2     0.800000E-01   12.0110           0   0.00000     -0.301140E-02
     14070 MEMB     114      POPE     HX       HAL2     0.900000E-01   1.00800           0   0.00000     -0.301140E-02
     14071 MEMB     114      POPE     HY       HAL2     0.900000E-01   1.00800           0   0.00000     -0.301140E-02
     14072 MEMB     114      POPE     O31      OSL     -0.490000       15.9994           0   0.00000     -0.301140E-02
     14073 MEMB     114      POPE     C31      CL       0.900000       12.0110           0   0.00000     -0.301140E-02
     14074 MEMB     114      POPE     O32      OBL     -0.630000       15.9994           0   0.00000     -0.301140E-02
     14075 MEMB     114      POPE     C32      CTL2    -0.220000       12.0110           0   0.00000     -0.301140E-02
     14076 MEMB     114      POPE     H2X      HAL2     0.900000E-01   1.00800           0   0.00000     -0.301140E-02
     14077 MEMB     114      POPE     H2Y      HAL2     0.900000E-01   1.00800           0   0.00000     -0.301140E-02
     14078 MEMB     114      POPE     C23      CTL2    -0.180000       12.0110           0   0.00000     -0.301140E-02
     14079 MEMB     114      POPE     H3R      HAL2     0.900000E-01   1.00800           0   0.00000     -0.301140E-02
     14080 MEMB     114      POPE     H3S      HAL2     0.900000E-01   1.00800           0   0.00000     -0.301140E-02
     14081 MEMB     114      POPE     C24      CTL2    -0.180000       12.0110           0   0.00000     -0.301140E-02
     14082 MEMB     114      POPE     H4R      HAL2     0.900000E-01   1.00800           0   0.00000     -0.301140E-02
     14083 MEMB     114      POPE     H4S      HAL2     0.900000E-01   1.00800           0   0.00000     -0.301140E-02
     14084 MEMB     114      POPE     C25      CTL2    -0.180000       12.0110           0   0.00000     -0.301140E-02
     14085 MEMB     114      POPE     H5R      HAL2     0.900000E-01   1.00800           0   0.00000     -0.301140E-02
     14086 MEMB     114      POPE     H5S      HAL2     0.900000E-01   1.00800           0   0.00000     -0.301140E-02
     14087 MEMB     114      POPE     C26      CTL2    -0.180000       12.0110           0   0.00000     -0.301140E-02
     14088 MEMB     114      POPE     H6R      HAL2     0.900000E-01   1.00800           0   0.00000     -0.301140E-02
     14089 MEMB     114      POPE     H6S      HAL2     0.900000E-01   1.00800           0   0.00000     -0.301140E-02
     14090 MEMB     114      POPE     C27      CTL2    -0.180000       12.0110           0   0.00000     -0.301140E-02
     14091 MEMB     114      POPE     H7R      HAL2     0.900000E-01   1.00800           0   0.00000     -0.301140E-02
     14092 MEMB     114      POPE     H7S      HAL2     0.900000E-01   1.00800           0   0.00000     -0.301140E-02
     14093 MEMB     114      POPE     C28      CTL2    -0.180000       12.0110           0   0.00000     -0.301140E-02
     14094 MEMB     114      POPE     H8R      HAL2     0.900000E-01   1.00800           0   0.00000     -0.301140E-02
     14095 MEMB     114      POPE     H8S      HAL2     0.900000E-01   1.00800           0   0.00000     -0.301140E-02
     14096 MEMB     114      POPE     C29      CEL1    -0.150000       12.0110           0   0.00000     -0.301140E-02
     14097 MEMB     114      POPE     H91      HEL1     0.150000       1.00800           0   0.00000     -0.301140E-02
     14098 MEMB     114      POPE     C210     CEL1    -0.150000       12.0110           0   0.00000     -0.301140E-02
     14099 MEMB     114      POPE     H101     HEL1     0.150000       1.00800           0   0.00000     -0.301140E-02
     14100 MEMB     114      POPE     C211     CTL2    -0.180000       12.0110           0   0.00000     -0.301140E-02
     14101 MEMB     114      POPE     H11R     HAL2     0.900000E-01   1.00800           0   0.00000     -0.301140E-02
     14102 MEMB     114      POPE     H11S     HAL2     0.900000E-01   1.00800           0   0.00000     -0.301140E-02
     14103 MEMB     114      POPE     C212     CTL2    -0.180000       12.0110           0   0.00000     -0.301140E-02
     14104 MEMB     114      POPE     H12R     HAL2     0.900000E-01   1.00800           0   0.00000     -0.301140E-02
     14105 MEMB     114      POPE     H12S     HAL2     0.900000E-01   1.00800           0   0.00000     -0.301140E-02
     14106 MEMB     114      POPE     C213     CTL2    -0.180000       12.0110           0   0.00000     -0.301140E-02
     14107 MEMB     114      POPE     H13R     HAL2     0.900000E-01   1.00800           0   0.00000     -0.301140E-02
     14108 MEMB     114      POPE     H13S     HAL2     0.900000E-01   1.00800           0   0.00000     -0.301140E-02
     14109 MEMB     114      POPE     C214     CTL2    -0.180000       12.0110           0   0.00000     -0.301140E-02
     14110 MEMB     114      POPE     H14R     HAL2     0.900000E-01   1.00800           0   0.00000     -0.301140E-02
     14111 MEMB     114      POPE     H14S     HAL2     0.900000E-01   1.00800           0   0.00000     -0.301140E-02
     14112 MEMB     114      POPE     C215     CTL2    -0.180000       12.0110           0   0.00000     -0.301140E-02
     14113 MEMB     114      POPE     H15R     HAL2     0.900000E-01   1.00800           0   0.00000     -0.301140E-02
     14114 MEMB     114      POPE     H15S     HAL2     0.900000E-01   1.00800           0   0.00000     -0.301140E-02
     14115 MEMB     114      POPE     C216     CTL2    -0.180000       12.0110           0   0.00000     -0.301140E-02
     14116 MEMB     114      POPE     H16R     HAL2     0.900000E-01   1.00800           0   0.00000     -0.301140E-02
     14117 MEMB     114      POPE     H16S     HAL2     0.900000E-01   1.00800           0   0.00000     -0.301140E-02
     14118 MEMB     114      POPE     C217     CTL2    -0.180000       12.0110           0   0.00000     -0.301140E-02
     14119 MEMB     114      POPE     H17R     HAL2     0.900000E-01   1.00800           0   0.00000     -0.301140E-02
     14120 MEMB     114      POPE     H17S     HAL2     0.900000E-01   1.00800           0   0.00000     -0.301140E-02
     14121 MEMB     114      POPE     C218     CTL3    -0.270000       12.0110           0   0.00000     -0.301140E-02
     14122 MEMB     114      POPE     H18R     HAL3     0.900000E-01   1.00800           0   0.00000     -0.301140E-02
     14123 MEMB     114      POPE     H18S     HAL3     0.900000E-01   1.00800           0   0.00000     -0.301140E-02
     14124 MEMB     114      POPE     H18T     HAL3     0.900000E-01   1.00800           0   0.00000     -0.301140E-02
     14125 MEMB     114      POPE     C33      CTL2    -0.180000       12.0110           0   0.00000     -0.301140E-02
     14126 MEMB     114      POPE     H3X      HAL2     0.900000E-01   1.00800           0   0.00000     -0.301140E-02
     14127 MEMB     114      POPE     H3Y      HAL2     0.900000E-01   1.00800           0   0.00000     -0.301140E-02
     14128 MEMB     114      POPE     C34      CTL2    -0.180000       12.0110           0   0.00000     -0.301140E-02
     14129 MEMB     114      POPE     H4X      HAL2     0.900000E-01   1.00800           0   0.00000     -0.301140E-02
     14130 MEMB     114      POPE     H4Y      HAL2     0.900000E-01   1.00800           0   0.00000     -0.301140E-02
     14131 MEMB     114      POPE     C35      CTL2    -0.180000       12.0110           0   0.00000     -0.301140E-02
     14132 MEMB     114      POPE     H5X      HAL2     0.900000E-01   1.00800           0   0.00000     -0.301140E-02
     14133 MEMB     114      POPE     H5Y      HAL2     0.900000E-01   1.00800           0   0.00000     -0.301140E-02
     14134 MEMB     114      POPE     C36      CTL2    -0.180000       12.0110           0   0.00000     -0.301140E-02
     14135 MEMB     114      POPE     H6X      HAL2     0.900000E-01   1.00800           0   0.00000     -0.301140E-02
     14136 MEMB     114      POPE     H6Y      HAL2     0.900000E-01   1.00800           0   0.00000     -0.301140E-02
     14137 MEMB     114      POPE     C37      CTL2    -0.180000       12.0110           0   0.00000     -0.301140E-02
     14138 MEMB     114      POPE     H7X      HAL2     0.900000E-01   1.00800           0   0.00000     -0.301140E-02
     14139 MEMB     114      POPE     H7Y      HAL2     0.900000E-01   1.00800           0   0.00000     -0.301140E-02
     14140 MEMB     114      POPE     C38      CTL2    -0.180000       12.0110           0   0.00000     -0.301140E-02
     14141 MEMB     114      POPE     H8X      HAL2     0.900000E-01   1.00800           0   0.00000     -0.301140E-02
     14142 MEMB     114      POPE     H8Y      HAL2     0.900000E-01   1.00800           0   0.00000     -0.301140E-02
     14143 MEMB     114      POPE     C39      CTL2    -0.180000       12.0110           0   0.00000     -0.301140E-02
     14144 MEMB     114      POPE     H9X      HAL2     0.900000E-01   1.00800           0   0.00000     -0.301140E-02
     14145 MEMB     114      POPE     H9Y      HAL2     0.900000E-01   1.00800           0   0.00000     -0.301140E-02
     14146 MEMB     114      POPE     C310     CTL2    -0.180000       12.0110           0   0.00000     -0.301140E-02
     14147 MEMB     114      POPE     H10X     HAL2     0.900000E-01   1.00800           0   0.00000     -0.301140E-02
     14148 MEMB     114      POPE     H10Y     HAL2     0.900000E-01   1.00800           0   0.00000     -0.301140E-02
     14149 MEMB     114      POPE     C311     CTL2    -0.180000       12.0110           0   0.00000     -0.301140E-02
     14150 MEMB     114      POPE     H11X     HAL2     0.900000E-01   1.00800           0   0.00000     -0.301140E-02
     14151 MEMB     114      POPE     H11Y     HAL2     0.900000E-01   1.00800           0   0.00000     -0.301140E-02
     14152 MEMB     114      POPE     C312     CTL2    -0.180000       12.0110           0   0.00000     -0.301140E-02
     14153 MEMB     114      POPE     H12X     HAL2     0.900000E-01   1.00800           0   0.00000     -0.301140E-02
     14154 MEMB     114      POPE     H12Y     HAL2     0.900000E-01   1.00800           0   0.00000     -0.301140E-02
     14155 MEMB     114      POPE     C313     CTL2    -0.180000       12.0110           0   0.00000     -0.301140E-02
     14156 MEMB     114      POPE     H13X     HAL2     0.900000E-01   1.00800           0   0.00000     -0.301140E-02
     14157 MEMB     114      POPE     H13Y     HAL2     0.900000E-01   1.00800           0   0.00000     -0.301140E-02
     14158 MEMB     114      POPE     C314     CTL2    -0.180000       12.0110           0   0.00000     -0.301140E-02
     14159 MEMB     114      POPE     H14X     HAL2     0.900000E-01   1.00800           0   0.00000     -0.301140E-02
     14160 MEMB     114      POPE     H14Y     HAL2     0.900000E-01   1.00800           0   0.00000     -0.301140E-02
     14161 MEMB     114      POPE     C315     CTL2    -0.180000       12.0110           0   0.00000     -0.301140E-02
     14162 MEMB     114      POPE     H15X     HAL2     0.900000E-01   1.00800           0   0.00000     -0.301140E-02
     14163 MEMB     114      POPE     H15Y     HAL2     0.900000E-01   1.00800           0   0.00000     -0.301140E-02
     14164 MEMB     114      POPE     C316     CTL3    -0.270000       12.0110           0   0.00000     -0.301140E-02
     14165 MEMB     114      POPE     H16X     HAL3     0.900000E-01   1.00800           0   0.00000     -0.301140E-02
     14166 MEMB     114      POPE     H16Y     HAL3     0.900000E-01   1.00800           0   0.00000     -0.301140E-02
     14167 MEMB     114      POPE     H16Z     HAL3     0.900000E-01   1.00800           0   0.00000     -0.301140E-02
     14168 MEMB     115      PMPE     N        NH3L    -0.300000       14.0070           0   0.00000     -0.301140E-02
     14169 MEMB     115      PMPE     HN1      HCL      0.330000       1.00800           0   0.00000     -0.301140E-02
     14170 MEMB     115      PMPE     HN2      HCL      0.330000       1.00800           0   0.00000     -0.301140E-02
     14171 MEMB     115      PMPE     HN3      HCL      0.330000       1.00800           0   0.00000     -0.301140E-02
     14172 MEMB     115      PMPE     C12      CTL2     0.130000       12.0110           0   0.00000     -0.301140E-02
     14173 MEMB     115      PMPE     H12A     HAL2     0.900000E-01   1.00800           0   0.00000     -0.301140E-02
     14174 MEMB     115      PMPE     H12B     HAL2     0.900000E-01   1.00800           0   0.00000     -0.301140E-02
     14175 MEMB     115      PMPE     C11      CTL2    -0.800000E-01   12.0110           0   0.00000     -0.301140E-02
     14176 MEMB     115      PMPE     H11A     HAL2     0.900000E-01   1.00800           0   0.00000     -0.301140E-02
     14177 MEMB     115      PMPE     H11B     HAL2     0.900000E-01   1.00800           0   0.00000     -0.301140E-02
     14178 MEMB     115      PMPE     P        PL        1.50000       30.9740           0   0.00000     -0.301140E-02
     14179 MEMB     115      PMPE     O13      O2L     -0.780000       15.9994           0   0.00000     -0.301140E-02
     14180 MEMB     115      PMPE     O14      O2L     -0.780000       15.9994           0   0.00000     -0.301140E-02
     14181 MEMB     115      PMPE     O11      OSLP    -0.570000       15.9994           0   0.00000     -0.301140E-02
     14182 MEMB     115      PMPE     O12      OSLP    -0.570000       15.9994           0   0.00000     -0.301140E-02
     14183 MEMB     115      PMPE     C1       CTL2    -0.800000E-01   12.0110           0   0.00000     -0.301140E-02
     14184 MEMB     115      PMPE     HA       HAL2     0.900000E-01   1.00800           0   0.00000     -0.301140E-02
     14185 MEMB     115      PMPE     HB       HAL2     0.900000E-01   1.00800           0   0.00000     -0.301140E-02
     14186 MEMB     115      PMPE     C2       CTL1     0.170000       12.0110           0   0.00000     -0.301140E-02
     14187 MEMB     115      PMPE     HS       HAL1     0.900000E-01   1.00800           0   0.00000     -0.301140E-02
     14188 MEMB     115      PMPE     O21      OSL     -0.490000       15.9994           0   0.00000     -0.301140E-02
     14189 MEMB     115      PMPE     C21      CL       0.900000       12.0110           0   0.00000     -0.301140E-02
     14190 MEMB     115      PMPE     O22      OBL     -0.630000       15.9994           0   0.00000     -0.301140E-02
     14191 MEMB     115      PMPE     C22      CTL2    -0.220000       12.0110           0   0.00000     -0.301140E-02
     14192 MEMB     115      PMPE     H2R      HAL2     0.900000E-01   1.00800           0   0.00000     -0.301140E-02
     14193 MEMB     115      PMPE     H2S      HAL2     0.900000E-01   1.00800           0   0.00000     -0.301140E-02
     14194 MEMB     115      PMPE     C3       CTL2     0.800000E-01   12.0110           0   0.00000     -0.301140E-02
     14195 MEMB     115      PMPE     HX       HAL2     0.900000E-01   1.00800           0   0.00000     -0.301140E-02
     14196 MEMB     115      PMPE     HY       HAL2     0.900000E-01   1.00800           0   0.00000     -0.301140E-02
     14197 MEMB     115      PMPE     O31      OSL     -0.490000       15.9994           0   0.00000     -0.301140E-02
     14198 MEMB     115      PMPE     C31      CL       0.900000       12.0110           0   0.00000     -0.301140E-02
     14199 MEMB     115      PMPE     O32      OBL     -0.630000       15.9994           0   0.00000     -0.301140E-02
     14200 MEMB     115      PMPE     C32      CTL2    -0.220000       12.0110           0   0.00000     -0.301140E-02
     14201 MEMB     115      PMPE     H2X      HAL2     0.900000E-01   1.00800           0   0.00000     -0.301140E-02
     14202 MEMB     115      PMPE     H2Y      HAL2     0.900000E-01   1.00800           0   0.00000     -0.301140E-02
     14203 MEMB     115      PMPE     C23      CTL2    -0.180000       12.0110           0   0.00000     -0.301140E-02
     14204 MEMB     115      PMPE     H3R      HAL2     0.900000E-01   1.00800           0   0.00000     -0.301140E-02
     14205 MEMB     115      PMPE     H3S      HAL2     0.900000E-01   1.00800           0   0.00000     -0.301140E-02
     14206 MEMB     115      PMPE     C24      CTL2    -0.180000       12.0110           0   0.00000     -0.301140E-02
     14207 MEMB     115      PMPE     H4R      HAL2     0.900000E-01   1.00800           0   0.00000     -0.301140E-02
     14208 MEMB     115      PMPE     H4S      HAL2     0.900000E-01   1.00800           0   0.00000     -0.301140E-02
     14209 MEMB     115      PMPE     C25      CTL2    -0.180000       12.0110           0   0.00000     -0.301140E-02
     14210 MEMB     115      PMPE     H5R      HAL2     0.900000E-01   1.00800           0   0.00000     -0.301140E-02
     14211 MEMB     115      PMPE     H5S      HAL2     0.900000E-01   1.00800           0   0.00000     -0.301140E-02
     14212 MEMB     115      PMPE     C26      CTL2    -0.180000       12.0110           0   0.00000     -0.301140E-02
     14213 MEMB     115      PMPE     H6R      HAL2     0.900000E-01   1.00800           0   0.00000     -0.301140E-02
     14214 MEMB     115      PMPE     H6S      HAL2     0.900000E-01   1.00800           0   0.00000     -0.301140E-02
     14215 MEMB     115      PMPE     C27      CTL2    -0.180000       12.0110           0   0.00000     -0.301140E-02
     14216 MEMB     115      PMPE     H7R      HAL2     0.900000E-01   1.00800           0   0.00000     -0.301140E-02
     14217 MEMB     115      PMPE     H7S      HAL2     0.900000E-01   1.00800           0   0.00000     -0.301140E-02
     14218 MEMB     115      PMPE     C28      CTL2    -0.180000       12.0110           0   0.00000     -0.301140E-02
     14219 MEMB     115      PMPE     H8R      HAL2     0.900000E-01   1.00800           0   0.00000     -0.301140E-02
     14220 MEMB     115      PMPE     H8S      HAL2     0.900000E-01   1.00800           0   0.00000     -0.301140E-02
     14221 MEMB     115      PMPE     C29      CG3RC1  -0.900000E-01   12.0110           0   0.00000     -0.301140E-02
     14222 MEMB     115      PMPE     H9R      HGA1     0.900000E-01   1.00800           0   0.00000     -0.301140E-02
     14223 MEMB     115      PMPE     C217     CG3C31  -0.180000       12.0110           0   0.00000     -0.301140E-02
     14224 MEMB     115      PMPE     H17R     HGA2     0.900000E-01   1.00800           0   0.00000     -0.301140E-02
     14225 MEMB     115      PMPE     H17S     HGA2     0.900000E-01   1.00800           0   0.00000     -0.301140E-02
     14226 MEMB     115      PMPE     C210     CG3RC1  -0.900000E-01   12.0110           0   0.00000     -0.301140E-02
     14227 MEMB     115      PMPE     H10R     HGA1     0.900000E-01   1.00800           0   0.00000     -0.301140E-02
     14228 MEMB     115      PMPE     C211     CTL2    -0.180000       12.0110           0   0.00000     -0.301140E-02
     14229 MEMB     115      PMPE     H11R     HAL2     0.900000E-01   1.00800           0   0.00000     -0.301140E-02
     14230 MEMB     115      PMPE     H11S     HAL2     0.900000E-01   1.00800           0   0.00000     -0.301140E-02
     14231 MEMB     115      PMPE     C212     CTL2    -0.180000       12.0110           0   0.00000     -0.301140E-02
     14232 MEMB     115      PMPE     H12R     HAL2     0.900000E-01   1.00800           0   0.00000     -0.301140E-02
     14233 MEMB     115      PMPE     H12S     HAL2     0.900000E-01   1.00800           0   0.00000     -0.301140E-02
     14234 MEMB     115      PMPE     C213     CTL2    -0.180000       12.0110           0   0.00000     -0.301140E-02
     14235 MEMB     115      PMPE     H13R     HAL2     0.900000E-01   1.00800           0   0.00000     -0.301140E-02
     14236 MEMB     115      PMPE     H13S     HAL2     0.900000E-01   1.00800           0   0.00000     -0.301140E-02
     14237 MEMB     115      PMPE     C214     CTL2    -0.180000       12.0110           0   0.00000     -0.301140E-02
     14238 MEMB     115      PMPE     H14R     HAL2     0.900000E-01   1.00800           0   0.00000     -0.301140E-02
     14239 MEMB     115      PMPE     H14S     HAL2     0.900000E-01   1.00800           0   0.00000     -0.301140E-02
     14240 MEMB     115      PMPE     C215     CTL2    -0.180000       12.0110           0   0.00000     -0.301140E-02
     14241 MEMB     115      PMPE     H15R     HAL2     0.900000E-01   1.00800           0   0.00000     -0.301140E-02
     14242 MEMB     115      PMPE     H15S     HAL2     0.900000E-01   1.00800           0   0.00000     -0.301140E-02
     14243 MEMB     115      PMPE     C216     CTL3    -0.270000       12.0110           0   0.00000     -0.301140E-02
     14244 MEMB     115      PMPE     H16R     HAL3     0.900000E-01   1.00800           0   0.00000     -0.301140E-02
     14245 MEMB     115      PMPE     H16S     HAL3     0.900000E-01   1.00800           0   0.00000     -0.301140E-02
     14246 MEMB     115      PMPE     H16T     HAL3     0.900000E-01   1.00800           0   0.00000     -0.301140E-02
     14247 MEMB     115      PMPE     C33      CTL2    -0.180000       12.0110           0   0.00000     -0.301140E-02
     14248 MEMB     115      PMPE     H3X      HAL2     0.900000E-01   1.00800           0   0.00000     -0.301140E-02
     14249 MEMB     115      PMPE     H3Y      HAL2     0.900000E-01   1.00800           0   0.00000     -0.301140E-02
     14250 MEMB     115      PMPE     C34      CTL2    -0.180000       12.0110           0   0.00000     -0.301140E-02
     14251 MEMB     115      PMPE     H4X      HAL2     0.900000E-01   1.00800           0   0.00000     -0.301140E-02
     14252 MEMB     115      PMPE     H4Y      HAL2     0.900000E-01   1.00800           0   0.00000     -0.301140E-02
     14253 MEMB     115      PMPE     C35      CTL2    -0.180000       12.0110           0   0.00000     -0.301140E-02
     14254 MEMB     115      PMPE     H5X      HAL2     0.900000E-01   1.00800           0   0.00000     -0.301140E-02
     14255 MEMB     115      PMPE     H5Y      HAL2     0.900000E-01   1.00800           0   0.00000     -0.301140E-02
     14256 MEMB     115      PMPE     C36      CTL2    -0.180000       12.0110           0   0.00000     -0.301140E-02
     14257 MEMB     115      PMPE     H6X      HAL2     0.900000E-01   1.00800           0   0.00000     -0.301140E-02
     14258 MEMB     115      PMPE     H6Y      HAL2     0.900000E-01   1.00800           0   0.00000     -0.301140E-02
     14259 MEMB     115      PMPE     C37      CTL2    -0.180000       12.0110           0   0.00000     -0.301140E-02
     14260 MEMB     115      PMPE     H7X      HAL2     0.900000E-01   1.00800           0   0.00000     -0.301140E-02
     14261 MEMB     115      PMPE     H7Y      HAL2     0.900000E-01   1.00800           0   0.00000     -0.301140E-02
     14262 MEMB     115      PMPE     C38      CTL2    -0.180000       12.0110           0   0.00000     -0.301140E-02
     14263 MEMB     115      PMPE     H8X      HAL2     0.900000E-01   1.00800           0   0.00000     -0.301140E-02
     14264 MEMB     115      PMPE     H8Y      HAL2     0.900000E-01   1.00800           0   0.00000     -0.301140E-02
     14265 MEMB     115      PMPE     C39      CTL2    -0.180000       12.0110           0   0.00000     -0.301140E-02
     14266 MEMB     115      PMPE     H9X      HAL2     0.900000E-01   1.00800           0   0.00000     -0.301140E-02
     14267 MEMB     115      PMPE     H9Y      HAL2     0.900000E-01   1.00800           0   0.00000     -0.301140E-02
     14268 MEMB     115      PMPE     C310     CTL2    -0.180000       12.0110           0   0.00000     -0.301140E-02
     14269 MEMB     115      PMPE     H10X     HAL2     0.900000E-01   1.00800           0   0.00000     -0.301140E-02
     14270 MEMB     115      PMPE     H10Y     HAL2     0.900000E-01   1.00800           0   0.00000     -0.301140E-02
     14271 MEMB     115      PMPE     C311     CTL2    -0.180000       12.0110           0   0.00000     -0.301140E-02
     14272 MEMB     115      PMPE     H11X     HAL2     0.900000E-01   1.00800           0   0.00000     -0.301140E-02
     14273 MEMB     115      PMPE     H11Y     HAL2     0.900000E-01   1.00800           0   0.00000     -0.301140E-02
     14274 MEMB     115      PMPE     C312     CTL2    -0.180000       12.0110           0   0.00000     -0.301140E-02
     14275 MEMB     115      PMPE     H12X     HAL2     0.900000E-01   1.00800           0   0.00000     -0.301140E-02
     14276 MEMB     115      PMPE     H12Y     HAL2     0.900000E-01   1.00800           0   0.00000     -0.301140E-02
     14277 MEMB     115      PMPE     C313     CTL2    -0.180000       12.0110           0   0.00000     -0.301140E-02
     14278 MEMB     115      PMPE     H13X     HAL2     0.900000E-01   1.00800           0   0.00000     -0.301140E-02
     14279 MEMB     115      PMPE     H13Y     HAL2     0.900000E-01   1.00800           0   0.00000     -0.301140E-02
     14280 MEMB     115      PMPE     C314     CTL2    -0.180000       12.0110           0   0.00000     -0.301140E-02
     14281 MEMB     115      PMPE     H14X     HAL2     0.900000E-01   1.00800           0   0.00000     -0.301140E-02
     14282 MEMB     115      PMPE     H14Y     HAL2     0.900000E-01   1.00800           0   0.00000     -0.301140E-02
     14283 MEMB     115      PMPE     C315     CTL2    -0.180000       12.0110           0   0.00000     -0.301140E-02
     14284 MEMB     115      PMPE     H15X     HAL2     0.900000E-01   1.00800           0   0.00000     -0.301140E-02
     14285 MEMB     115      PMPE     H15Y     HAL2     0.900000E-01   1.00800           0   0.00000     -0.301140E-02
     14286 MEMB     115      PMPE     C316     CTL3    -0.270000       12.0110           0   0.00000     -0.301140E-02
     14287 MEMB     115      PMPE     H16X     HAL3     0.900000E-01   1.00800           0   0.00000     -0.301140E-02
     14288 MEMB     115      PMPE     H16Y     HAL3     0.900000E-01   1.00800           0   0.00000     -0.301140E-02
     14289 MEMB     115      PMPE     H16Z     HAL3     0.900000E-01   1.00800           0   0.00000     -0.301140E-02
     14290 MEMB     116      POPE     N        NH3L    -0.300000       14.0070           0   0.00000     -0.301140E-02
     14291 MEMB     116      POPE     HN1      HCL      0.330000       1.00800           0   0.00000     -0.301140E-02
     14292 MEMB     116      POPE     HN2      HCL      0.330000       1.00800           0   0.00000     -0.301140E-02
     14293 MEMB     116      POPE     HN3      HCL      0.330000       1.00800           0   0.00000     -0.301140E-02
     14294 MEMB     116      POPE     C12      CTL2     0.130000       12.0110           0   0.00000     -0.301140E-02
     14295 MEMB     116      POPE     H12A     HAL2     0.900000E-01   1.00800           0   0.00000     -0.301140E-02
     14296 MEMB     116      POPE     H12B     HAL2     0.900000E-01   1.00800           0   0.00000     -0.301140E-02
     14297 MEMB     116      POPE     C11      CTL2    -0.800000E-01   12.0110           0   0.00000     -0.301140E-02
     14298 MEMB     116      POPE     H11A     HAL2     0.900000E-01   1.00800           0   0.00000     -0.301140E-02
     14299 MEMB     116      POPE     H11B     HAL2     0.900000E-01   1.00800           0   0.00000     -0.301140E-02
     14300 MEMB     116      POPE     P        PL        1.50000       30.9740           0   0.00000     -0.301140E-02
     14301 MEMB     116      POPE     O13      O2L     -0.780000       15.9994           0   0.00000     -0.301140E-02
     14302 MEMB     116      POPE     O14      O2L     -0.780000       15.9994           0   0.00000     -0.301140E-02
     14303 MEMB     116      POPE     O11      OSLP    -0.570000       15.9994           0   0.00000     -0.301140E-02
     14304 MEMB     116      POPE     O12      OSLP    -0.570000       15.9994           0   0.00000     -0.301140E-02
     14305 MEMB     116      POPE     C1       CTL2    -0.800000E-01   12.0110           0   0.00000     -0.301140E-02
     14306 MEMB     116      POPE     HA       HAL2     0.900000E-01   1.00800           0   0.00000     -0.301140E-02
     14307 MEMB     116      POPE     HB       HAL2     0.900000E-01   1.00800           0   0.00000     -0.301140E-02
     14308 MEMB     116      POPE     C2       CTL1     0.170000       12.0110           0   0.00000     -0.301140E-02
     14309 MEMB     116      POPE     HS       HAL1     0.900000E-01   1.00800           0   0.00000     -0.301140E-02
     14310 MEMB     116      POPE     O21      OSL     -0.490000       15.9994           0   0.00000     -0.301140E-02
     14311 MEMB     116      POPE     C21      CL       0.900000       12.0110           0   0.00000     -0.301140E-02
     14312 MEMB     116      POPE     O22      OBL     -0.630000       15.9994           0   0.00000     -0.301140E-02
     14313 MEMB     116      POPE     C22      CTL2    -0.220000       12.0110           0   0.00000     -0.301140E-02
     14314 MEMB     116      POPE     H2R      HAL2     0.900000E-01   1.00800           0   0.00000     -0.301140E-02
     14315 MEMB     116      POPE     H2S      HAL2     0.900000E-01   1.00800           0   0.00000     -0.301140E-02
     14316 MEMB     116      POPE     C3       CTL2     0.800000E-01   12.0110           0   0.00000     -0.301140E-02
     14317 MEMB     116      POPE     HX       HAL2     0.900000E-01   1.00800           0   0.00000     -0.301140E-02
     14318 MEMB     116      POPE     HY       HAL2     0.900000E-01   1.00800           0   0.00000     -0.301140E-02
     14319 MEMB     116      POPE     O31      OSL     -0.490000       15.9994           0   0.00000     -0.301140E-02
     14320 MEMB     116      POPE     C31      CL       0.900000       12.0110           0   0.00000     -0.301140E-02
     14321 MEMB     116      POPE     O32      OBL     -0.630000       15.9994           0   0.00000     -0.301140E-02
     14322 MEMB     116      POPE     C32      CTL2    -0.220000       12.0110           0   0.00000     -0.301140E-02
     14323 MEMB     116      POPE     H2X      HAL2     0.900000E-01   1.00800           0   0.00000     -0.301140E-02
     14324 MEMB     116      POPE     H2Y      HAL2     0.900000E-01   1.00800           0   0.00000     -0.301140E-02
     14325 MEMB     116      POPE     C23      CTL2    -0.180000       12.0110           0   0.00000     -0.301140E-02
     14326 MEMB     116      POPE     H3R      HAL2     0.900000E-01   1.00800           0   0.00000     -0.301140E-02
     14327 MEMB     116      POPE     H3S      HAL2     0.900000E-01   1.00800           0   0.00000     -0.301140E-02
     14328 MEMB     116      POPE     C24      CTL2    -0.180000       12.0110           0   0.00000     -0.301140E-02
     14329 MEMB     116      POPE     H4R      HAL2     0.900000E-01   1.00800           0   0.00000     -0.301140E-02
     14330 MEMB     116      POPE     H4S      HAL2     0.900000E-01   1.00800           0   0.00000     -0.301140E-02
     14331 MEMB     116      POPE     C25      CTL2    -0.180000       12.0110           0   0.00000     -0.301140E-02
     14332 MEMB     116      POPE     H5R      HAL2     0.900000E-01   1.00800           0   0.00000     -0.301140E-02
     14333 MEMB     116      POPE     H5S      HAL2     0.900000E-01   1.00800           0   0.00000     -0.301140E-02
     14334 MEMB     116      POPE     C26      CTL2    -0.180000       12.0110           0   0.00000     -0.301140E-02
     14335 MEMB     116      POPE     H6R      HAL2     0.900000E-01   1.00800           0   0.00000     -0.301140E-02
     14336 MEMB     116      POPE     H6S      HAL2     0.900000E-01   1.00800           0   0.00000     -0.301140E-02
     14337 MEMB     116      POPE     C27      CTL2    -0.180000       12.0110           0   0.00000     -0.301140E-02
     14338 MEMB     116      POPE     H7R      HAL2     0.900000E-01   1.00800           0   0.00000     -0.301140E-02
     14339 MEMB     116      POPE     H7S      HAL2     0.900000E-01   1.00800           0   0.00000     -0.301140E-02
     14340 MEMB     116      POPE     C28      CTL2    -0.180000       12.0110           0   0.00000     -0.301140E-02
     14341 MEMB     116      POPE     H8R      HAL2     0.900000E-01   1.00800           0   0.00000     -0.301140E-02
     14342 MEMB     116      POPE     H8S      HAL2     0.900000E-01   1.00800           0   0.00000     -0.301140E-02
     14343 MEMB     116      POPE     C29      CEL1    -0.150000       12.0110           0   0.00000     -0.301140E-02
     14344 MEMB     116      POPE     H91      HEL1     0.150000       1.00800           0   0.00000     -0.301140E-02
     14345 MEMB     116      POPE     C210     CEL1    -0.150000       12.0110           0   0.00000     -0.301140E-02
     14346 MEMB     116      POPE     H101     HEL1     0.150000       1.00800           0   0.00000     -0.301140E-02
     14347 MEMB     116      POPE     C211     CTL2    -0.180000       12.0110           0   0.00000     -0.301140E-02
     14348 MEMB     116      POPE     H11R     HAL2     0.900000E-01   1.00800           0   0.00000     -0.301140E-02
     14349 MEMB     116      POPE     H11S     HAL2     0.900000E-01   1.00800           0   0.00000     -0.301140E-02
     14350 MEMB     116      POPE     C212     CTL2    -0.180000       12.0110           0   0.00000     -0.301140E-02
     14351 MEMB     116      POPE     H12R     HAL2     0.900000E-01   1.00800           0   0.00000     -0.301140E-02
     14352 MEMB     116      POPE     H12S     HAL2     0.900000E-01   1.00800           0   0.00000     -0.301140E-02
     14353 MEMB     116      POPE     C213     CTL2    -0.180000       12.0110           0   0.00000     -0.301140E-02
     14354 MEMB     116      POPE     H13R     HAL2     0.900000E-01   1.00800           0   0.00000     -0.301140E-02
     14355 MEMB     116      POPE     H13S     HAL2     0.900000E-01   1.00800           0   0.00000     -0.301140E-02
     14356 MEMB     116      POPE     C214     CTL2    -0.180000       12.0110           0   0.00000     -0.301140E-02
     14357 MEMB     116      POPE     H14R     HAL2     0.900000E-01   1.00800           0   0.00000     -0.301140E-02
     14358 MEMB     116      POPE     H14S     HAL2     0.900000E-01   1.00800           0   0.00000     -0.301140E-02
     14359 MEMB     116      POPE     C215     CTL2    -0.180000       12.0110           0   0.00000     -0.301140E-02
     14360 MEMB     116      POPE     H15R     HAL2     0.900000E-01   1.00800           0   0.00000     -0.301140E-02
     14361 MEMB     116      POPE     H15S     HAL2     0.900000E-01   1.00800           0   0.00000     -0.301140E-02
     14362 MEMB     116      POPE     C216     CTL2    -0.180000       12.0110           0   0.00000     -0.301140E-02
     14363 MEMB     116      POPE     H16R     HAL2     0.900000E-01   1.00800           0   0.00000     -0.301140E-02
     14364 MEMB     116      POPE     H16S     HAL2     0.900000E-01   1.00800           0   0.00000     -0.301140E-02
     14365 MEMB     116      POPE     C217     CTL2    -0.180000       12.0110           0   0.00000     -0.301140E-02
     14366 MEMB     116      POPE     H17R     HAL2     0.900000E-01   1.00800           0   0.00000     -0.301140E-02
     14367 MEMB     116      POPE     H17S     HAL2     0.900000E-01   1.00800           0   0.00000     -0.301140E-02
     14368 MEMB     116      POPE     C218     CTL3    -0.270000       12.0110           0   0.00000     -0.301140E-02
     14369 MEMB     116      POPE     H18R     HAL3     0.900000E-01   1.00800           0   0.00000     -0.301140E-02
     14370 MEMB     116      POPE     H18S     HAL3     0.900000E-01   1.00800           0   0.00000     -0.301140E-02
     14371 MEMB     116      POPE     H18T     HAL3     0.900000E-01   1.00800           0   0.00000     -0.301140E-02
     14372 MEMB     116      POPE     C33      CTL2    -0.180000       12.0110           0   0.00000     -0.301140E-02
     14373 MEMB     116      POPE     H3X      HAL2     0.900000E-01   1.00800           0   0.00000     -0.301140E-02
     14374 MEMB     116      POPE     H3Y      HAL2     0.900000E-01   1.00800           0   0.00000     -0.301140E-02
     14375 MEMB     116      POPE     C34      CTL2    -0.180000       12.0110           0   0.00000     -0.301140E-02
     14376 MEMB     116      POPE     H4X      HAL2     0.900000E-01   1.00800           0   0.00000     -0.301140E-02
     14377 MEMB     116      POPE     H4Y      HAL2     0.900000E-01   1.00800           0   0.00000     -0.301140E-02
     14378 MEMB     116      POPE     C35      CTL2    -0.180000       12.0110           0   0.00000     -0.301140E-02
     14379 MEMB     116      POPE     H5X      HAL2     0.900000E-01   1.00800           0   0.00000     -0.301140E-02
     14380 MEMB     116      POPE     H5Y      HAL2     0.900000E-01   1.00800           0   0.00000     -0.301140E-02
     14381 MEMB     116      POPE     C36      CTL2    -0.180000       12.0110           0   0.00000     -0.301140E-02
     14382 MEMB     116      POPE     H6X      HAL2     0.900000E-01   1.00800           0   0.00000     -0.301140E-02
     14383 MEMB     116      POPE     H6Y      HAL2     0.900000E-01   1.00800           0   0.00000     -0.301140E-02
     14384 MEMB     116      POPE     C37      CTL2    -0.180000       12.0110           0   0.00000     -0.301140E-02
     14385 MEMB     116      POPE     H7X      HAL2     0.900000E-01   1.00800           0   0.00000     -0.301140E-02
     14386 MEMB     116      POPE     H7Y      HAL2     0.900000E-01   1.00800           0   0.00000     -0.301140E-02
     14387 MEMB     116      POPE     C38      CTL2    -0.180000       12.0110           0   0.00000     -0.301140E-02
     14388 MEMB     116      POPE     H8X      HAL2     0.900000E-01   1.00800           0   0.00000     -0.301140E-02
     14389 MEMB     116      POPE     H8Y      HAL2     0.900000E-01   1.00800           0   0.00000     -0.301140E-02
     14390 MEMB     116      POPE     C39      CTL2    -0.180000       12.0110           0   0.00000     -0.301140E-02
     14391 MEMB     116      POPE     H9X      HAL2     0.900000E-01   1.00800           0   0.00000     -0.301140E-02
     14392 MEMB     116      POPE     H9Y      HAL2     0.900000E-01   1.00800           0   0.00000     -0.301140E-02
     14393 MEMB     116      POPE     C310     CTL2    -0.180000       12.0110           0   0.00000     -0.301140E-02
     14394 MEMB     116      POPE     H10X     HAL2     0.900000E-01   1.00800           0   0.00000     -0.301140E-02
     14395 MEMB     116      POPE     H10Y     HAL2     0.900000E-01   1.00800           0   0.00000     -0.301140E-02
     14396 MEMB     116      POPE     C311     CTL2    -0.180000       12.0110           0   0.00000     -0.301140E-02
     14397 MEMB     116      POPE     H11X     HAL2     0.900000E-01   1.00800           0   0.00000     -0.301140E-02
     14398 MEMB     116      POPE     H11Y     HAL2     0.900000E-01   1.00800           0   0.00000     -0.301140E-02
     14399 MEMB     116      POPE     C312     CTL2    -0.180000       12.0110           0   0.00000     -0.301140E-02
     14400 MEMB     116      POPE     H12X     HAL2     0.900000E-01   1.00800           0   0.00000     -0.301140E-02
     14401 MEMB     116      POPE     H12Y     HAL2     0.900000E-01   1.00800           0   0.00000     -0.301140E-02
     14402 MEMB     116      POPE     C313     CTL2    -0.180000       12.0110           0   0.00000     -0.301140E-02
     14403 MEMB     116      POPE     H13X     HAL2     0.900000E-01   1.00800           0   0.00000     -0.301140E-02
     14404 MEMB     116      POPE     H13Y     HAL2     0.900000E-01   1.00800           0   0.00000     -0.301140E-02
     14405 MEMB     116      POPE     C314     CTL2    -0.180000       12.0110           0   0.00000     -0.301140E-02
     14406 MEMB     116      POPE     H14X     HAL2     0.900000E-01   1.00800           0   0.00000     -0.301140E-02
     14407 MEMB     116      POPE     H14Y     HAL2     0.900000E-01   1.00800           0   0.00000     -0.301140E-02
     14408 MEMB     116      POPE     C315     CTL2    -0.180000       12.0110           0   0.00000     -0.301140E-02
     14409 MEMB     116      POPE     H15X     HAL2     0.900000E-01   1.00800           0   0.00000     -0.301140E-02
     14410 MEMB     116      POPE     H15Y     HAL2     0.900000E-01   1.00800           0   0.00000     -0.301140E-02
     14411 MEMB     116      POPE     C316     CTL3    -0.270000       12.0110           0   0.00000     -0.301140E-02
     14412 MEMB     116      POPE     H16X     HAL3     0.900000E-01   1.00800           0   0.00000     -0.301140E-02
     14413 MEMB     116      POPE     H16Y     HAL3     0.900000E-01   1.00800           0   0.00000     -0.301140E-02
     14414 MEMB     116      POPE     H16Z     HAL3     0.900000E-01   1.00800           0   0.00000     -0.301140E-02
     14415 MEMB     117      PMPG     C13      CTL2     0.500000E-01   12.0110           0   0.00000     -0.301140E-02
     14416 MEMB     117      PMPG     H13A     HAL2     0.900000E-01   1.00800           0   0.00000     -0.301140E-02
     14417 MEMB     117      PMPG     H13B     HAL2     0.900000E-01   1.00800           0   0.00000     -0.301140E-02
     14418 MEMB     117      PMPG     OC3      OHL     -0.660000       15.9994           0   0.00000     -0.301140E-02
     14419 MEMB     117      PMPG     HO3      HOL      0.430000       1.00800           0   0.00000     -0.301140E-02
     14420 MEMB     117      PMPG     C12      CTL1     0.140000       12.0110           0   0.00000     -0.301140E-02
     14421 MEMB     117      PMPG     H12A     HAL1     0.900000E-01   1.00800           0   0.00000     -0.301140E-02
     14422 MEMB     117      PMPG     OC2      OHL     -0.660000       15.9994           0   0.00000     -0.301140E-02
     14423 MEMB     117      PMPG     HO2      HOL      0.430000       1.00800           0   0.00000     -0.301140E-02
     14424 MEMB     117      PMPG     C11      CTL2    -0.800000E-01   12.0110           0   0.00000     -0.301140E-02
     14425 MEMB     117      PMPG     H11A     HAL2     0.900000E-01   1.00800           0   0.00000     -0.301140E-02
     14426 MEMB     117      PMPG     H11B     HAL2     0.900000E-01   1.00800           0   0.00000     -0.301140E-02
     14427 MEMB     117      PMPG     P        PL        1.50000       30.9740           0   0.00000     -0.301140E-02
     14428 MEMB     117      PMPG     O13      O2L     -0.780000       15.9994           0   0.00000     -0.301140E-02
     14429 MEMB     117      PMPG     O14      O2L     -0.780000       15.9994           0   0.00000     -0.301140E-02
     14430 MEMB     117      PMPG     O11      OSLP    -0.570000       15.9994           0   0.00000     -0.301140E-02
     14431 MEMB     117      PMPG     O12      OSLP    -0.570000       15.9994           0   0.00000     -0.301140E-02
     14432 MEMB     117      PMPG     C1       CTL2    -0.800000E-01   12.0110           0   0.00000     -0.301140E-02
     14433 MEMB     117      PMPG     HA       HAL2     0.900000E-01   1.00800           0   0.00000     -0.301140E-02
     14434 MEMB     117      PMPG     HB       HAL2     0.900000E-01   1.00800           0   0.00000     -0.301140E-02
     14435 MEMB     117      PMPG     C2       CTL1     0.170000       12.0110           0   0.00000     -0.301140E-02
     14436 MEMB     117      PMPG     HS       HAL1     0.900000E-01   1.00800           0   0.00000     -0.301140E-02
     14437 MEMB     117      PMPG     O21      OSL     -0.490000       15.9994           0   0.00000     -0.301140E-02
     14438 MEMB     117      PMPG     C21      CL       0.900000       12.0110           0   0.00000     -0.301140E-02
     14439 MEMB     117      PMPG     O22      OBL     -0.630000       15.9994           0   0.00000     -0.301140E-02
     14440 MEMB     117      PMPG     C22      CTL2    -0.220000       12.0110           0   0.00000     -0.301140E-02
     14441 MEMB     117      PMPG     H2R      HAL2     0.900000E-01   1.00800           0   0.00000     -0.301140E-02
     14442 MEMB     117      PMPG     H2S      HAL2     0.900000E-01   1.00800           0   0.00000     -0.301140E-02
     14443 MEMB     117      PMPG     C3       CTL2     0.800000E-01   12.0110           0   0.00000     -0.301140E-02
     14444 MEMB     117      PMPG     HX       HAL2     0.900000E-01   1.00800           0   0.00000     -0.301140E-02
     14445 MEMB     117      PMPG     HY       HAL2     0.900000E-01   1.00800           0   0.00000     -0.301140E-02
     14446 MEMB     117      PMPG     O31      OSL     -0.490000       15.9994           0   0.00000     -0.301140E-02
     14447 MEMB     117      PMPG     C31      CL       0.900000       12.0110           0   0.00000     -0.301140E-02
     14448 MEMB     117      PMPG     O32      OBL     -0.630000       15.9994           0   0.00000     -0.301140E-02
     14449 MEMB     117      PMPG     C32      CTL2    -0.220000       12.0110           0   0.00000     -0.301140E-02
     14450 MEMB     117      PMPG     H2X      HAL2     0.900000E-01   1.00800           0   0.00000     -0.301140E-02
     14451 MEMB     117      PMPG     H2Y      HAL2     0.900000E-01   1.00800           0   0.00000     -0.301140E-02
     14452 MEMB     117      PMPG     C23      CTL2    -0.180000       12.0110           0   0.00000     -0.301140E-02
     14453 MEMB     117      PMPG     H3R      HAL2     0.900000E-01   1.00800           0   0.00000     -0.301140E-02
     14454 MEMB     117      PMPG     H3S      HAL2     0.900000E-01   1.00800           0   0.00000     -0.301140E-02
     14455 MEMB     117      PMPG     C24      CTL2    -0.180000       12.0110           0   0.00000     -0.301140E-02
     14456 MEMB     117      PMPG     H4R      HAL2     0.900000E-01   1.00800           0   0.00000     -0.301140E-02
     14457 MEMB     117      PMPG     H4S      HAL2     0.900000E-01   1.00800           0   0.00000     -0.301140E-02
     14458 MEMB     117      PMPG     C25      CTL2    -0.180000       12.0110           0   0.00000     -0.301140E-02
     14459 MEMB     117      PMPG     H5R      HAL2     0.900000E-01   1.00800           0   0.00000     -0.301140E-02
     14460 MEMB     117      PMPG     H5S      HAL2     0.900000E-01   1.00800           0   0.00000     -0.301140E-02
     14461 MEMB     117      PMPG     C26      CTL2    -0.180000       12.0110           0   0.00000     -0.301140E-02
     14462 MEMB     117      PMPG     H6R      HAL2     0.900000E-01   1.00800           0   0.00000     -0.301140E-02
     14463 MEMB     117      PMPG     H6S      HAL2     0.900000E-01   1.00800           0   0.00000     -0.301140E-02
     14464 MEMB     117      PMPG     C27      CTL2    -0.180000       12.0110           0   0.00000     -0.301140E-02
     14465 MEMB     117      PMPG     H7R      HAL2     0.900000E-01   1.00800           0   0.00000     -0.301140E-02
     14466 MEMB     117      PMPG     H7S      HAL2     0.900000E-01   1.00800           0   0.00000     -0.301140E-02
     14467 MEMB     117      PMPG     C28      CTL2    -0.180000       12.0110           0   0.00000     -0.301140E-02
     14468 MEMB     117      PMPG     H8R      HAL2     0.900000E-01   1.00800           0   0.00000     -0.301140E-02
     14469 MEMB     117      PMPG     H8S      HAL2     0.900000E-01   1.00800           0   0.00000     -0.301140E-02
     14470 MEMB     117      PMPG     C29      CG3RC1  -0.900000E-01   12.0110           0   0.00000     -0.301140E-02
     14471 MEMB     117      PMPG     H9R      HGA1     0.900000E-01   1.00800           0   0.00000     -0.301140E-02
     14472 MEMB     117      PMPG     C217     CG3C31  -0.180000       12.0110           0   0.00000     -0.301140E-02
     14473 MEMB     117      PMPG     H17R     HGA2     0.900000E-01   1.00800           0   0.00000     -0.301140E-02
     14474 MEMB     117      PMPG     H17S     HGA2     0.900000E-01   1.00800           0   0.00000     -0.301140E-02
     14475 MEMB     117      PMPG     C210     CG3RC1  -0.900000E-01   12.0110           0   0.00000     -0.301140E-02
     14476 MEMB     117      PMPG     H10R     HGA1     0.900000E-01   1.00800           0   0.00000     -0.301140E-02
     14477 MEMB     117      PMPG     C211     CTL2    -0.180000       12.0110           0   0.00000     -0.301140E-02
     14478 MEMB     117      PMPG     H11R     HAL2     0.900000E-01   1.00800           0   0.00000     -0.301140E-02
     14479 MEMB     117      PMPG     H11S     HAL2     0.900000E-01   1.00800           0   0.00000     -0.301140E-02
     14480 MEMB     117      PMPG     C212     CTL2    -0.180000       12.0110           0   0.00000     -0.301140E-02
     14481 MEMB     117      PMPG     H12R     HAL2     0.900000E-01   1.00800           0   0.00000     -0.301140E-02
     14482 MEMB     117      PMPG     H12S     HAL2     0.900000E-01   1.00800           0   0.00000     -0.301140E-02
     14483 MEMB     117      PMPG     C213     CTL2    -0.180000       12.0110           0   0.00000     -0.301140E-02
     14484 MEMB     117      PMPG     H13R     HAL2     0.900000E-01   1.00800           0   0.00000     -0.301140E-02
     14485 MEMB     117      PMPG     H13S     HAL2     0.900000E-01   1.00800           0   0.00000     -0.301140E-02
     14486 MEMB     117      PMPG     C214     CTL2    -0.180000       12.0110           0   0.00000     -0.301140E-02
     14487 MEMB     117      PMPG     H14R     HAL2     0.900000E-01   1.00800           0   0.00000     -0.301140E-02
     14488 MEMB     117      PMPG     H14S     HAL2     0.900000E-01   1.00800           0   0.00000     -0.301140E-02
     14489 MEMB     117      PMPG     C215     CTL2    -0.180000       12.0110           0   0.00000     -0.301140E-02
     14490 MEMB     117      PMPG     H15R     HAL2     0.900000E-01   1.00800           0   0.00000     -0.301140E-02
     14491 MEMB     117      PMPG     H15S     HAL2     0.900000E-01   1.00800           0   0.00000     -0.301140E-02
     14492 MEMB     117      PMPG     C216     CTL3    -0.270000       12.0110           0   0.00000     -0.301140E-02
     14493 MEMB     117      PMPG     H16R     HAL3     0.900000E-01   1.00800           0   0.00000     -0.301140E-02
     14494 MEMB     117      PMPG     H16S     HAL3     0.900000E-01   1.00800           0   0.00000     -0.301140E-02
     14495 MEMB     117      PMPG     H16T     HAL3     0.900000E-01   1.00800           0   0.00000     -0.301140E-02
     14496 MEMB     117      PMPG     C33      CTL2    -0.180000       12.0110           0   0.00000     -0.301140E-02
     14497 MEMB     117      PMPG     H3X      HAL2     0.900000E-01   1.00800           0   0.00000     -0.301140E-02
     14498 MEMB     117      PMPG     H3Y      HAL2     0.900000E-01   1.00800           0   0.00000     -0.301140E-02
     14499 MEMB     117      PMPG     C34      CTL2    -0.180000       12.0110           0   0.00000     -0.301140E-02
     14500 MEMB     117      PMPG     H4X      HAL2     0.900000E-01   1.00800           0   0.00000     -0.301140E-02
     14501 MEMB     117      PMPG     H4Y      HAL2     0.900000E-01   1.00800           0   0.00000     -0.301140E-02
     14502 MEMB     117      PMPG     C35      CTL2    -0.180000       12.0110           0   0.00000     -0.301140E-02
     14503 MEMB     117      PMPG     H5X      HAL2     0.900000E-01   1.00800           0   0.00000     -0.301140E-02
     14504 MEMB     117      PMPG     H5Y      HAL2     0.900000E-01   1.00800           0   0.00000     -0.301140E-02
     14505 MEMB     117      PMPG     C36      CTL2    -0.180000       12.0110           0   0.00000     -0.301140E-02
     14506 MEMB     117      PMPG     H6X      HAL2     0.900000E-01   1.00800           0   0.00000     -0.301140E-02
     14507 MEMB     117      PMPG     H6Y      HAL2     0.900000E-01   1.00800           0   0.00000     -0.301140E-02
     14508 MEMB     117      PMPG     C37      CTL2    -0.180000       12.0110           0   0.00000     -0.301140E-02
     14509 MEMB     117      PMPG     H7X      HAL2     0.900000E-01   1.00800           0   0.00000     -0.301140E-02
     14510 MEMB     117      PMPG     H7Y      HAL2     0.900000E-01   1.00800           0   0.00000     -0.301140E-02
     14511 MEMB     117      PMPG     C38      CTL2    -0.180000       12.0110           0   0.00000     -0.301140E-02
     14512 MEMB     117      PMPG     H8X      HAL2     0.900000E-01   1.00800           0   0.00000     -0.301140E-02
     14513 MEMB     117      PMPG     H8Y      HAL2     0.900000E-01   1.00800           0   0.00000     -0.301140E-02
     14514 MEMB     117      PMPG     C39      CTL2    -0.180000       12.0110           0   0.00000     -0.301140E-02
     14515 MEMB     117      PMPG     H9X      HAL2     0.900000E-01   1.00800           0   0.00000     -0.301140E-02
     14516 MEMB     117      PMPG     H9Y      HAL2     0.900000E-01   1.00800           0   0.00000     -0.301140E-02
     14517 MEMB     117      PMPG     C310     CTL2    -0.180000       12.0110           0   0.00000     -0.301140E-02
     14518 MEMB     117      PMPG     H10X     HAL2     0.900000E-01   1.00800           0   0.00000     -0.301140E-02
     14519 MEMB     117      PMPG     H10Y     HAL2     0.900000E-01   1.00800           0   0.00000     -0.301140E-02
     14520 MEMB     117      PMPG     C311     CTL2    -0.180000       12.0110           0   0.00000     -0.301140E-02
     14521 MEMB     117      PMPG     H11X     HAL2     0.900000E-01   1.00800           0   0.00000     -0.301140E-02
     14522 MEMB     117      PMPG     H11Y     HAL2     0.900000E-01   1.00800           0   0.00000     -0.301140E-02
     14523 MEMB     117      PMPG     C312     CTL2    -0.180000       12.0110           0   0.00000     -0.301140E-02
     14524 MEMB     117      PMPG     H12X     HAL2     0.900000E-01   1.00800           0   0.00000     -0.301140E-02
     14525 MEMB     117      PMPG     H12Y     HAL2     0.900000E-01   1.00800           0   0.00000     -0.301140E-02
     14526 MEMB     117      PMPG     C313     CTL2    -0.180000       12.0110           0   0.00000     -0.301140E-02
     14527 MEMB     117      PMPG     H13X     HAL2     0.900000E-01   1.00800           0   0.00000     -0.301140E-02
     14528 MEMB     117      PMPG     H13Y     HAL2     0.900000E-01   1.00800           0   0.00000     -0.301140E-02
     14529 MEMB     117      PMPG     C314     CTL2    -0.180000       12.0110           0   0.00000     -0.301140E-02
     14530 MEMB     117      PMPG     H14X     HAL2     0.900000E-01   1.00800           0   0.00000     -0.301140E-02
     14531 MEMB     117      PMPG     H14Y     HAL2     0.900000E-01   1.00800           0   0.00000     -0.301140E-02
     14532 MEMB     117      PMPG     C315     CTL2    -0.180000       12.0110           0   0.00000     -0.301140E-02
     14533 MEMB     117      PMPG     H15X     HAL2     0.900000E-01   1.00800           0   0.00000     -0.301140E-02
     14534 MEMB     117      PMPG     H15Y     HAL2     0.900000E-01   1.00800           0   0.00000     -0.301140E-02
     14535 MEMB     117      PMPG     C316     CTL3    -0.270000       12.0110           0   0.00000     -0.301140E-02
     14536 MEMB     117      PMPG     H16X     HAL3     0.900000E-01   1.00800           0   0.00000     -0.301140E-02
     14537 MEMB     117      PMPG     H16Y     HAL3     0.900000E-01   1.00800           0   0.00000     -0.301140E-02
     14538 MEMB     117      PMPG     H16Z     HAL3     0.900000E-01   1.00800           0   0.00000     -0.301140E-02
     14539 MEMB     118      PMPE     N        NH3L    -0.300000       14.0070           0   0.00000     -0.301140E-02
     14540 MEMB     118      PMPE     HN1      HCL      0.330000       1.00800           0   0.00000     -0.301140E-02
     14541 MEMB     118      PMPE     HN2      HCL      0.330000       1.00800           0   0.00000     -0.301140E-02
     14542 MEMB     118      PMPE     HN3      HCL      0.330000       1.00800           0   0.00000     -0.301140E-02
     14543 MEMB     118      PMPE     C12      CTL2     0.130000       12.0110           0   0.00000     -0.301140E-02
     14544 MEMB     118      PMPE     H12A     HAL2     0.900000E-01   1.00800           0   0.00000     -0.301140E-02
     14545 MEMB     118      PMPE     H12B     HAL2     0.900000E-01   1.00800           0   0.00000     -0.301140E-02
     14546 MEMB     118      PMPE     C11      CTL2    -0.800000E-01   12.0110           0   0.00000     -0.301140E-02
     14547 MEMB     118      PMPE     H11A     HAL2     0.900000E-01   1.00800           0   0.00000     -0.301140E-02
     14548 MEMB     118      PMPE     H11B     HAL2     0.900000E-01   1.00800           0   0.00000     -0.301140E-02
     14549 MEMB     118      PMPE     P        PL        1.50000       30.9740           0   0.00000     -0.301140E-02
     14550 MEMB     118      PMPE     O13      O2L     -0.780000       15.9994           0   0.00000     -0.301140E-02
     14551 MEMB     118      PMPE     O14      O2L     -0.780000       15.9994           0   0.00000     -0.301140E-02
     14552 MEMB     118      PMPE     O11      OSLP    -0.570000       15.9994           0   0.00000     -0.301140E-02
     14553 MEMB     118      PMPE     O12      OSLP    -0.570000       15.9994           0   0.00000     -0.301140E-02
     14554 MEMB     118      PMPE     C1       CTL2    -0.800000E-01   12.0110           0   0.00000     -0.301140E-02
     14555 MEMB     118      PMPE     HA       HAL2     0.900000E-01   1.00800           0   0.00000     -0.301140E-02
     14556 MEMB     118      PMPE     HB       HAL2     0.900000E-01   1.00800           0   0.00000     -0.301140E-02
     14557 MEMB     118      PMPE     C2       CTL1     0.170000       12.0110           0   0.00000     -0.301140E-02
     14558 MEMB     118      PMPE     HS       HAL1     0.900000E-01   1.00800           0   0.00000     -0.301140E-02
     14559 MEMB     118      PMPE     O21      OSL     -0.490000       15.9994           0   0.00000     -0.301140E-02
     14560 MEMB     118      PMPE     C21      CL       0.900000       12.0110           0   0.00000     -0.301140E-02
     14561 MEMB     118      PMPE     O22      OBL     -0.630000       15.9994           0   0.00000     -0.301140E-02
     14562 MEMB     118      PMPE     C22      CTL2    -0.220000       12.0110           0   0.00000     -0.301140E-02
     14563 MEMB     118      PMPE     H2R      HAL2     0.900000E-01   1.00800           0   0.00000     -0.301140E-02
     14564 MEMB     118      PMPE     H2S      HAL2     0.900000E-01   1.00800           0   0.00000     -0.301140E-02
     14565 MEMB     118      PMPE     C3       CTL2     0.800000E-01   12.0110           0   0.00000     -0.301140E-02
     14566 MEMB     118      PMPE     HX       HAL2     0.900000E-01   1.00800           0   0.00000     -0.301140E-02
     14567 MEMB     118      PMPE     HY       HAL2     0.900000E-01   1.00800           0   0.00000     -0.301140E-02
     14568 MEMB     118      PMPE     O31      OSL     -0.490000       15.9994           0   0.00000     -0.301140E-02
     14569 MEMB     118      PMPE     C31      CL       0.900000       12.0110           0   0.00000     -0.301140E-02
     14570 MEMB     118      PMPE     O32      OBL     -0.630000       15.9994           0   0.00000     -0.301140E-02
     14571 MEMB     118      PMPE     C32      CTL2    -0.220000       12.0110           0   0.00000     -0.301140E-02
     14572 MEMB     118      PMPE     H2X      HAL2     0.900000E-01   1.00800           0   0.00000     -0.301140E-02
     14573 MEMB     118      PMPE     H2Y      HAL2     0.900000E-01   1.00800           0   0.00000     -0.301140E-02
     14574 MEMB     118      PMPE     C23      CTL2    -0.180000       12.0110           0   0.00000     -0.301140E-02
     14575 MEMB     118      PMPE     H3R      HAL2     0.900000E-01   1.00800           0   0.00000     -0.301140E-02
     14576 MEMB     118      PMPE     H3S      HAL2     0.900000E-01   1.00800           0   0.00000     -0.301140E-02
     14577 MEMB     118      PMPE     C24      CTL2    -0.180000       12.0110           0   0.00000     -0.301140E-02
     14578 MEMB     118      PMPE     H4R      HAL2     0.900000E-01   1.00800           0   0.00000     -0.301140E-02
     14579 MEMB     118      PMPE     H4S      HAL2     0.900000E-01   1.00800           0   0.00000     -0.301140E-02
     14580 MEMB     118      PMPE     C25      CTL2    -0.180000       12.0110           0   0.00000     -0.301140E-02
     14581 MEMB     118      PMPE     H5R      HAL2     0.900000E-01   1.00800           0   0.00000     -0.301140E-02
     14582 MEMB     118      PMPE     H5S      HAL2     0.900000E-01   1.00800           0   0.00000     -0.301140E-02
     14583 MEMB     118      PMPE     C26      CTL2    -0.180000       12.0110           0   0.00000     -0.301140E-02
     14584 MEMB     118      PMPE     H6R      HAL2     0.900000E-01   1.00800           0   0.00000     -0.301140E-02
     14585 MEMB     118      PMPE     H6S      HAL2     0.900000E-01   1.00800           0   0.00000     -0.301140E-02
     14586 MEMB     118      PMPE     C27      CTL2    -0.180000       12.0110           0   0.00000     -0.301140E-02
     14587 MEMB     118      PMPE     H7R      HAL2     0.900000E-01   1.00800           0   0.00000     -0.301140E-02
     14588 MEMB     118      PMPE     H7S      HAL2     0.900000E-01   1.00800           0   0.00000     -0.301140E-02
     14589 MEMB     118      PMPE     C28      CTL2    -0.180000       12.0110           0   0.00000     -0.301140E-02
     14590 MEMB     118      PMPE     H8R      HAL2     0.900000E-01   1.00800           0   0.00000     -0.301140E-02
     14591 MEMB     118      PMPE     H8S      HAL2     0.900000E-01   1.00800           0   0.00000     -0.301140E-02
     14592 MEMB     118      PMPE     C29      CG3RC1  -0.900000E-01   12.0110           0   0.00000     -0.301140E-02
     14593 MEMB     118      PMPE     H9R      HGA1     0.900000E-01   1.00800           0   0.00000     -0.301140E-02
     14594 MEMB     118      PMPE     C217     CG3C31  -0.180000       12.0110           0   0.00000     -0.301140E-02
     14595 MEMB     118      PMPE     H17R     HGA2     0.900000E-01   1.00800           0   0.00000     -0.301140E-02
     14596 MEMB     118      PMPE     H17S     HGA2     0.900000E-01   1.00800           0   0.00000     -0.301140E-02
     14597 MEMB     118      PMPE     C210     CG3RC1  -0.900000E-01   12.0110           0   0.00000     -0.301140E-02
     14598 MEMB     118      PMPE     H10R     HGA1     0.900000E-01   1.00800           0   0.00000     -0.301140E-02
     14599 MEMB     118      PMPE     C211     CTL2    -0.180000       12.0110           0   0.00000     -0.301140E-02
     14600 MEMB     118      PMPE     H11R     HAL2     0.900000E-01   1.00800           0   0.00000     -0.301140E-02
     14601 MEMB     118      PMPE     H11S     HAL2     0.900000E-01   1.00800           0   0.00000     -0.301140E-02
     14602 MEMB     118      PMPE     C212     CTL2    -0.180000       12.0110           0   0.00000     -0.301140E-02
     14603 MEMB     118      PMPE     H12R     HAL2     0.900000E-01   1.00800           0   0.00000     -0.301140E-02
     14604 MEMB     118      PMPE     H12S     HAL2     0.900000E-01   1.00800           0   0.00000     -0.301140E-02
     14605 MEMB     118      PMPE     C213     CTL2    -0.180000       12.0110           0   0.00000     -0.301140E-02
     14606 MEMB     118      PMPE     H13R     HAL2     0.900000E-01   1.00800           0   0.00000     -0.301140E-02
     14607 MEMB     118      PMPE     H13S     HAL2     0.900000E-01   1.00800           0   0.00000     -0.301140E-02
     14608 MEMB     118      PMPE     C214     CTL2    -0.180000       12.0110           0   0.00000     -0.301140E-02
     14609 MEMB     118      PMPE     H14R     HAL2     0.900000E-01   1.00800           0   0.00000     -0.301140E-02
     14610 MEMB     118      PMPE     H14S     HAL2     0.900000E-01   1.00800           0   0.00000     -0.301140E-02
     14611 MEMB     118      PMPE     C215     CTL2    -0.180000       12.0110           0   0.00000     -0.301140E-02
     14612 MEMB     118      PMPE     H15R     HAL2     0.900000E-01   1.00800           0   0.00000     -0.301140E-02
     14613 MEMB     118      PMPE     H15S     HAL2     0.900000E-01   1.00800           0   0.00000     -0.301140E-02
     14614 MEMB     118      PMPE     C216     CTL3    -0.270000       12.0110           0   0.00000     -0.301140E-02
     14615 MEMB     118      PMPE     H16R     HAL3     0.900000E-01   1.00800           0   0.00000     -0.301140E-02
     14616 MEMB     118      PMPE     H16S     HAL3     0.900000E-01   1.00800           0   0.00000     -0.301140E-02
     14617 MEMB     118      PMPE     H16T     HAL3     0.900000E-01   1.00800           0   0.00000     -0.301140E-02
     14618 MEMB     118      PMPE     C33      CTL2    -0.180000       12.0110           0   0.00000     -0.301140E-02
     14619 MEMB     118      PMPE     H3X      HAL2     0.900000E-01   1.00800           0   0.00000     -0.301140E-02
     14620 MEMB     118      PMPE     H3Y      HAL2     0.900000E-01   1.00800           0   0.00000     -0.301140E-02
     14621 MEMB     118      PMPE     C34      CTL2    -0.180000       12.0110           0   0.00000     -0.301140E-02
     14622 MEMB     118      PMPE     H4X      HAL2     0.900000E-01   1.00800           0   0.00000     -0.301140E-02
     14623 MEMB     118      PMPE     H4Y      HAL2     0.900000E-01   1.00800           0   0.00000     -0.301140E-02
     14624 MEMB     118      PMPE     C35      CTL2    -0.180000       12.0110           0   0.00000     -0.301140E-02
     14625 MEMB     118      PMPE     H5X      HAL2     0.900000E-01   1.00800           0   0.00000     -0.301140E-02
     14626 MEMB     118      PMPE     H5Y      HAL2     0.900000E-01   1.00800           0   0.00000     -0.301140E-02
     14627 MEMB     118      PMPE     C36      CTL2    -0.180000       12.0110           0   0.00000     -0.301140E-02
     14628 MEMB     118      PMPE     H6X      HAL2     0.900000E-01   1.00800           0   0.00000     -0.301140E-02
     14629 MEMB     118      PMPE     H6Y      HAL2     0.900000E-01   1.00800           0   0.00000     -0.301140E-02
     14630 MEMB     118      PMPE     C37      CTL2    -0.180000       12.0110           0   0.00000     -0.301140E-02
     14631 MEMB     118      PMPE     H7X      HAL2     0.900000E-01   1.00800           0   0.00000     -0.301140E-02
     14632 MEMB     118      PMPE     H7Y      HAL2     0.900000E-01   1.00800           0   0.00000     -0.301140E-02
     14633 MEMB     118      PMPE     C38      CTL2    -0.180000       12.0110           0   0.00000     -0.301140E-02
     14634 MEMB     118      PMPE     H8X      HAL2     0.900000E-01   1.00800           0   0.00000     -0.301140E-02
     14635 MEMB     118      PMPE     H8Y      HAL2     0.900000E-01   1.00800           0   0.00000     -0.301140E-02
     14636 MEMB     118      PMPE     C39      CTL2    -0.180000       12.0110           0   0.00000     -0.301140E-02
     14637 MEMB     118      PMPE     H9X      HAL2     0.900000E-01   1.00800           0   0.00000     -0.301140E-02
     14638 MEMB     118      PMPE     H9Y      HAL2     0.900000E-01   1.00800           0   0.00000     -0.301140E-02
     14639 MEMB     118      PMPE     C310     CTL2    -0.180000       12.0110           0   0.00000     -0.301140E-02
     14640 MEMB     118      PMPE     H10X     HAL2     0.900000E-01   1.00800           0   0.00000     -0.301140E-02
     14641 MEMB     118      PMPE     H10Y     HAL2     0.900000E-01   1.00800           0   0.00000     -0.301140E-02
     14642 MEMB     118      PMPE     C311     CTL2    -0.180000       12.0110           0   0.00000     -0.301140E-02
     14643 MEMB     118      PMPE     H11X     HAL2     0.900000E-01   1.00800           0   0.00000     -0.301140E-02
     14644 MEMB     118      PMPE     H11Y     HAL2     0.900000E-01   1.00800           0   0.00000     -0.301140E-02
     14645 MEMB     118      PMPE     C312     CTL2    -0.180000       12.0110           0   0.00000     -0.301140E-02
     14646 MEMB     118      PMPE     H12X     HAL2     0.900000E-01   1.00800           0   0.00000     -0.301140E-02
     14647 MEMB     118      PMPE     H12Y     HAL2     0.900000E-01   1.00800           0   0.00000     -0.301140E-02
     14648 MEMB     118      PMPE     C313     CTL2    -0.180000       12.0110           0   0.00000     -0.301140E-02
     14649 MEMB     118      PMPE     H13X     HAL2     0.900000E-01   1.00800           0   0.00000     -0.301140E-02
     14650 MEMB     118      PMPE     H13Y     HAL2     0.900000E-01   1.00800           0   0.00000     -0.301140E-02
     14651 MEMB     118      PMPE     C314     CTL2    -0.180000       12.0110           0   0.00000     -0.301140E-02
     14652 MEMB     118      PMPE     H14X     HAL2     0.900000E-01   1.00800           0   0.00000     -0.301140E-02
     14653 MEMB     118      PMPE     H14Y     HAL2     0.900000E-01   1.00800           0   0.00000     -0.301140E-02
     14654 MEMB     118      PMPE     C315     CTL2    -0.180000       12.0110           0   0.00000     -0.301140E-02
     14655 MEMB     118      PMPE     H15X     HAL2     0.900000E-01   1.00800           0   0.00000     -0.301140E-02
     14656 MEMB     118      PMPE     H15Y     HAL2     0.900000E-01   1.00800           0   0.00000     -0.301140E-02
     14657 MEMB     118      PMPE     C316     CTL3    -0.270000       12.0110           0   0.00000     -0.301140E-02
     14658 MEMB     118      PMPE     H16X     HAL3     0.900000E-01   1.00800           0   0.00000     -0.301140E-02
     14659 MEMB     118      PMPE     H16Y     HAL3     0.900000E-01   1.00800           0   0.00000     -0.301140E-02
     14660 MEMB     118      PMPE     H16Z     HAL3     0.900000E-01   1.00800           0   0.00000     -0.301140E-02
     14661 MEMB     119      PMPE     N        NH3L    -0.300000       14.0070           0   0.00000     -0.301140E-02
     14662 MEMB     119      PMPE     HN1      HCL      0.330000       1.00800           0   0.00000     -0.301140E-02
     14663 MEMB     119      PMPE     HN2      HCL      0.330000       1.00800           0   0.00000     -0.301140E-02
     14664 MEMB     119      PMPE     HN3      HCL      0.330000       1.00800           0   0.00000     -0.301140E-02
     14665 MEMB     119      PMPE     C12      CTL2     0.130000       12.0110           0   0.00000     -0.301140E-02
     14666 MEMB     119      PMPE     H12A     HAL2     0.900000E-01   1.00800           0   0.00000     -0.301140E-02
     14667 MEMB     119      PMPE     H12B     HAL2     0.900000E-01   1.00800           0   0.00000     -0.301140E-02
     14668 MEMB     119      PMPE     C11      CTL2    -0.800000E-01   12.0110           0   0.00000     -0.301140E-02
     14669 MEMB     119      PMPE     H11A     HAL2     0.900000E-01   1.00800           0   0.00000     -0.301140E-02
     14670 MEMB     119      PMPE     H11B     HAL2     0.900000E-01   1.00800           0   0.00000     -0.301140E-02
     14671 MEMB     119      PMPE     P        PL        1.50000       30.9740           0   0.00000     -0.301140E-02
     14672 MEMB     119      PMPE     O13      O2L     -0.780000       15.9994           0   0.00000     -0.301140E-02
     14673 MEMB     119      PMPE     O14      O2L     -0.780000       15.9994           0   0.00000     -0.301140E-02
     14674 MEMB     119      PMPE     O11      OSLP    -0.570000       15.9994           0   0.00000     -0.301140E-02
     14675 MEMB     119      PMPE     O12      OSLP    -0.570000       15.9994           0   0.00000     -0.301140E-02
     14676 MEMB     119      PMPE     C1       CTL2    -0.800000E-01   12.0110           0   0.00000     -0.301140E-02
     14677 MEMB     119      PMPE     HA       HAL2     0.900000E-01   1.00800           0   0.00000     -0.301140E-02
     14678 MEMB     119      PMPE     HB       HAL2     0.900000E-01   1.00800           0   0.00000     -0.301140E-02
     14679 MEMB     119      PMPE     C2       CTL1     0.170000       12.0110           0   0.00000     -0.301140E-02
     14680 MEMB     119      PMPE     HS       HAL1     0.900000E-01   1.00800           0   0.00000     -0.301140E-02
     14681 MEMB     119      PMPE     O21      OSL     -0.490000       15.9994           0   0.00000     -0.301140E-02
     14682 MEMB     119      PMPE     C21      CL       0.900000       12.0110           0   0.00000     -0.301140E-02
     14683 MEMB     119      PMPE     O22      OBL     -0.630000       15.9994           0   0.00000     -0.301140E-02
     14684 MEMB     119      PMPE     C22      CTL2    -0.220000       12.0110           0   0.00000     -0.301140E-02
     14685 MEMB     119      PMPE     H2R      HAL2     0.900000E-01   1.00800           0   0.00000     -0.301140E-02
     14686 MEMB     119      PMPE     H2S      HAL2     0.900000E-01   1.00800           0   0.00000     -0.301140E-02
     14687 MEMB     119      PMPE     C3       CTL2     0.800000E-01   12.0110           0   0.00000     -0.301140E-02
     14688 MEMB     119      PMPE     HX       HAL2     0.900000E-01   1.00800           0   0.00000     -0.301140E-02
     14689 MEMB     119      PMPE     HY       HAL2     0.900000E-01   1.00800           0   0.00000     -0.301140E-02
     14690 MEMB     119      PMPE     O31      OSL     -0.490000       15.9994           0   0.00000     -0.301140E-02
     14691 MEMB     119      PMPE     C31      CL       0.900000       12.0110           0   0.00000     -0.301140E-02
     14692 MEMB     119      PMPE     O32      OBL     -0.630000       15.9994           0   0.00000     -0.301140E-02
     14693 MEMB     119      PMPE     C32      CTL2    -0.220000       12.0110           0   0.00000     -0.301140E-02
     14694 MEMB     119      PMPE     H2X      HAL2     0.900000E-01   1.00800           0   0.00000     -0.301140E-02
     14695 MEMB     119      PMPE     H2Y      HAL2     0.900000E-01   1.00800           0   0.00000     -0.301140E-02
     14696 MEMB     119      PMPE     C23      CTL2    -0.180000       12.0110           0   0.00000     -0.301140E-02
     14697 MEMB     119      PMPE     H3R      HAL2     0.900000E-01   1.00800           0   0.00000     -0.301140E-02
     14698 MEMB     119      PMPE     H3S      HAL2     0.900000E-01   1.00800           0   0.00000     -0.301140E-02
     14699 MEMB     119      PMPE     C24      CTL2    -0.180000       12.0110           0   0.00000     -0.301140E-02
     14700 MEMB     119      PMPE     H4R      HAL2     0.900000E-01   1.00800           0   0.00000     -0.301140E-02
     14701 MEMB     119      PMPE     H4S      HAL2     0.900000E-01   1.00800           0   0.00000     -0.301140E-02
     14702 MEMB     119      PMPE     C25      CTL2    -0.180000       12.0110           0   0.00000     -0.301140E-02
     14703 MEMB     119      PMPE     H5R      HAL2     0.900000E-01   1.00800           0   0.00000     -0.301140E-02
     14704 MEMB     119      PMPE     H5S      HAL2     0.900000E-01   1.00800           0   0.00000     -0.301140E-02
     14705 MEMB     119      PMPE     C26      CTL2    -0.180000       12.0110           0   0.00000     -0.301140E-02
     14706 MEMB     119      PMPE     H6R      HAL2     0.900000E-01   1.00800           0   0.00000     -0.301140E-02
     14707 MEMB     119      PMPE     H6S      HAL2     0.900000E-01   1.00800           0   0.00000     -0.301140E-02
     14708 MEMB     119      PMPE     C27      CTL2    -0.180000       12.0110           0   0.00000     -0.301140E-02
     14709 MEMB     119      PMPE     H7R      HAL2     0.900000E-01   1.00800           0   0.00000     -0.301140E-02
     14710 MEMB     119      PMPE     H7S      HAL2     0.900000E-01   1.00800           0   0.00000     -0.301140E-02
     14711 MEMB     119      PMPE     C28      CTL2    -0.180000       12.0110           0   0.00000     -0.301140E-02
     14712 MEMB     119      PMPE     H8R      HAL2     0.900000E-01   1.00800           0   0.00000     -0.301140E-02
     14713 MEMB     119      PMPE     H8S      HAL2     0.900000E-01   1.00800           0   0.00000     -0.301140E-02
     14714 MEMB     119      PMPE     C29      CG3RC1  -0.900000E-01   12.0110           0   0.00000     -0.301140E-02
     14715 MEMB     119      PMPE     H9R      HGA1     0.900000E-01   1.00800           0   0.00000     -0.301140E-02
     14716 MEMB     119      PMPE     C217     CG3C31  -0.180000       12.0110           0   0.00000     -0.301140E-02
     14717 MEMB     119      PMPE     H17R     HGA2     0.900000E-01   1.00800           0   0.00000     -0.301140E-02
     14718 MEMB     119      PMPE     H17S     HGA2     0.900000E-01   1.00800           0   0.00000     -0.301140E-02
     14719 MEMB     119      PMPE     C210     CG3RC1  -0.900000E-01   12.0110           0   0.00000     -0.301140E-02
     14720 MEMB     119      PMPE     H10R     HGA1     0.900000E-01   1.00800           0   0.00000     -0.301140E-02
     14721 MEMB     119      PMPE     C211     CTL2    -0.180000       12.0110           0   0.00000     -0.301140E-02
     14722 MEMB     119      PMPE     H11R     HAL2     0.900000E-01   1.00800           0   0.00000     -0.301140E-02
     14723 MEMB     119      PMPE     H11S     HAL2     0.900000E-01   1.00800           0   0.00000     -0.301140E-02
     14724 MEMB     119      PMPE     C212     CTL2    -0.180000       12.0110           0   0.00000     -0.301140E-02
     14725 MEMB     119      PMPE     H12R     HAL2     0.900000E-01   1.00800           0   0.00000     -0.301140E-02
     14726 MEMB     119      PMPE     H12S     HAL2     0.900000E-01   1.00800           0   0.00000     -0.301140E-02
     14727 MEMB     119      PMPE     C213     CTL2    -0.180000       12.0110           0   0.00000     -0.301140E-02
     14728 MEMB     119      PMPE     H13R     HAL2     0.900000E-01   1.00800           0   0.00000     -0.301140E-02
     14729 MEMB     119      PMPE     H13S     HAL2     0.900000E-01   1.00800           0   0.00000     -0.301140E-02
     14730 MEMB     119      PMPE     C214     CTL2    -0.180000       12.0110           0   0.00000     -0.301140E-02
     14731 MEMB     119      PMPE     H14R     HAL2     0.900000E-01   1.00800           0   0.00000     -0.301140E-02
     14732 MEMB     119      PMPE     H14S     HAL2     0.900000E-01   1.00800           0   0.00000     -0.301140E-02
     14733 MEMB     119      PMPE     C215     CTL2    -0.180000       12.0110           0   0.00000     -0.301140E-02
     14734 MEMB     119      PMPE     H15R     HAL2     0.900000E-01   1.00800           0   0.00000     -0.301140E-02
     14735 MEMB     119      PMPE     H15S     HAL2     0.900000E-01   1.00800           0   0.00000     -0.301140E-02
     14736 MEMB     119      PMPE     C216     CTL3    -0.270000       12.0110           0   0.00000     -0.301140E-02
     14737 MEMB     119      PMPE     H16R     HAL3     0.900000E-01   1.00800           0   0.00000     -0.301140E-02
     14738 MEMB     119      PMPE     H16S     HAL3     0.900000E-01   1.00800           0   0.00000     -0.301140E-02
     14739 MEMB     119      PMPE     H16T     HAL3     0.900000E-01   1.00800           0   0.00000     -0.301140E-02
     14740 MEMB     119      PMPE     C33      CTL2    -0.180000       12.0110           0   0.00000     -0.301140E-02
     14741 MEMB     119      PMPE     H3X      HAL2     0.900000E-01   1.00800           0   0.00000     -0.301140E-02
     14742 MEMB     119      PMPE     H3Y      HAL2     0.900000E-01   1.00800           0   0.00000     -0.301140E-02
     14743 MEMB     119      PMPE     C34      CTL2    -0.180000       12.0110           0   0.00000     -0.301140E-02
     14744 MEMB     119      PMPE     H4X      HAL2     0.900000E-01   1.00800           0   0.00000     -0.301140E-02
     14745 MEMB     119      PMPE     H4Y      HAL2     0.900000E-01   1.00800           0   0.00000     -0.301140E-02
     14746 MEMB     119      PMPE     C35      CTL2    -0.180000       12.0110           0   0.00000     -0.301140E-02
     14747 MEMB     119      PMPE     H5X      HAL2     0.900000E-01   1.00800           0   0.00000     -0.301140E-02
     14748 MEMB     119      PMPE     H5Y      HAL2     0.900000E-01   1.00800           0   0.00000     -0.301140E-02
     14749 MEMB     119      PMPE     C36      CTL2    -0.180000       12.0110           0   0.00000     -0.301140E-02
     14750 MEMB     119      PMPE     H6X      HAL2     0.900000E-01   1.00800           0   0.00000     -0.301140E-02
     14751 MEMB     119      PMPE     H6Y      HAL2     0.900000E-01   1.00800           0   0.00000     -0.301140E-02
     14752 MEMB     119      PMPE     C37      CTL2    -0.180000       12.0110           0   0.00000     -0.301140E-02
     14753 MEMB     119      PMPE     H7X      HAL2     0.900000E-01   1.00800           0   0.00000     -0.301140E-02
     14754 MEMB     119      PMPE     H7Y      HAL2     0.900000E-01   1.00800           0   0.00000     -0.301140E-02
     14755 MEMB     119      PMPE     C38      CTL2    -0.180000       12.0110           0   0.00000     -0.301140E-02
     14756 MEMB     119      PMPE     H8X      HAL2     0.900000E-01   1.00800           0   0.00000     -0.301140E-02
     14757 MEMB     119      PMPE     H8Y      HAL2     0.900000E-01   1.00800           0   0.00000     -0.301140E-02
     14758 MEMB     119      PMPE     C39      CTL2    -0.180000       12.0110           0   0.00000     -0.301140E-02
     14759 MEMB     119      PMPE     H9X      HAL2     0.900000E-01   1.00800           0   0.00000     -0.301140E-02
     14760 MEMB     119      PMPE     H9Y      HAL2     0.900000E-01   1.00800           0   0.00000     -0.301140E-02
     14761 MEMB     119      PMPE     C310     CTL2    -0.180000       12.0110           0   0.00000     -0.301140E-02
     14762 MEMB     119      PMPE     H10X     HAL2     0.900000E-01   1.00800           0   0.00000     -0.301140E-02
     14763 MEMB     119      PMPE     H10Y     HAL2     0.900000E-01   1.00800           0   0.00000     -0.301140E-02
     14764 MEMB     119      PMPE     C311     CTL2    -0.180000       12.0110           0   0.00000     -0.301140E-02
     14765 MEMB     119      PMPE     H11X     HAL2     0.900000E-01   1.00800           0   0.00000     -0.301140E-02
     14766 MEMB     119      PMPE     H11Y     HAL2     0.900000E-01   1.00800           0   0.00000     -0.301140E-02
     14767 MEMB     119      PMPE     C312     CTL2    -0.180000       12.0110           0   0.00000     -0.301140E-02
     14768 MEMB     119      PMPE     H12X     HAL2     0.900000E-01   1.00800           0   0.00000     -0.301140E-02
     14769 MEMB     119      PMPE     H12Y     HAL2     0.900000E-01   1.00800           0   0.00000     -0.301140E-02
     14770 MEMB     119      PMPE     C313     CTL2    -0.180000       12.0110           0   0.00000     -0.301140E-02
     14771 MEMB     119      PMPE     H13X     HAL2     0.900000E-01   1.00800           0   0.00000     -0.301140E-02
     14772 MEMB     119      PMPE     H13Y     HAL2     0.900000E-01   1.00800           0   0.00000     -0.301140E-02
     14773 MEMB     119      PMPE     C314     CTL2    -0.180000       12.0110           0   0.00000     -0.301140E-02
     14774 MEMB     119      PMPE     H14X     HAL2     0.900000E-01   1.00800           0   0.00000     -0.301140E-02
     14775 MEMB     119      PMPE     H14Y     HAL2     0.900000E-01   1.00800           0   0.00000     -0.301140E-02
     14776 MEMB     119      PMPE     C315     CTL2    -0.180000       12.0110           0   0.00000     -0.301140E-02
     14777 MEMB     119      PMPE     H15X     HAL2     0.900000E-01   1.00800           0   0.00000     -0.301140E-02
     14778 MEMB     119      PMPE     H15Y     HAL2     0.900000E-01   1.00800           0   0.00000     -0.301140E-02
     14779 MEMB     119      PMPE     C316     CTL3    -0.270000       12.0110           0   0.00000     -0.301140E-02
     14780 MEMB     119      PMPE     H16X     HAL3     0.900000E-01   1.00800           0   0.00000     -0.301140E-02
     14781 MEMB     119      PMPE     H16Y     HAL3     0.900000E-01   1.00800           0   0.00000     -0.301140E-02
     14782 MEMB     119      PMPE     H16Z     HAL3     0.900000E-01   1.00800           0   0.00000     -0.301140E-02
     14783 MEMB     120      PMPE     N        NH3L    -0.300000       14.0070           0   0.00000     -0.301140E-02
     14784 MEMB     120      PMPE     HN1      HCL      0.330000       1.00800           0   0.00000     -0.301140E-02
     14785 MEMB     120      PMPE     HN2      HCL      0.330000       1.00800           0   0.00000     -0.301140E-02
     14786 MEMB     120      PMPE     HN3      HCL      0.330000       1.00800           0   0.00000     -0.301140E-02
     14787 MEMB     120      PMPE     C12      CTL2     0.130000       12.0110           0   0.00000     -0.301140E-02
     14788 MEMB     120      PMPE     H12A     HAL2     0.900000E-01   1.00800           0   0.00000     -0.301140E-02
     14789 MEMB     120      PMPE     H12B     HAL2     0.900000E-01   1.00800           0   0.00000     -0.301140E-02
     14790 MEMB     120      PMPE     C11      CTL2    -0.800000E-01   12.0110           0   0.00000     -0.301140E-02
     14791 MEMB     120      PMPE     H11A     HAL2     0.900000E-01   1.00800           0   0.00000     -0.301140E-02
     14792 MEMB     120      PMPE     H11B     HAL2     0.900000E-01   1.00800           0   0.00000     -0.301140E-02
     14793 MEMB     120      PMPE     P        PL        1.50000       30.9740           0   0.00000     -0.301140E-02
     14794 MEMB     120      PMPE     O13      O2L     -0.780000       15.9994           0   0.00000     -0.301140E-02
     14795 MEMB     120      PMPE     O14      O2L     -0.780000       15.9994           0   0.00000     -0.301140E-02
     14796 MEMB     120      PMPE     O11      OSLP    -0.570000       15.9994           0   0.00000     -0.301140E-02
     14797 MEMB     120      PMPE     O12      OSLP    -0.570000       15.9994           0   0.00000     -0.301140E-02
     14798 MEMB     120      PMPE     C1       CTL2    -0.800000E-01   12.0110           0   0.00000     -0.301140E-02
     14799 MEMB     120      PMPE     HA       HAL2     0.900000E-01   1.00800           0   0.00000     -0.301140E-02
     14800 MEMB     120      PMPE     HB       HAL2     0.900000E-01   1.00800           0   0.00000     -0.301140E-02
     14801 MEMB     120      PMPE     C2       CTL1     0.170000       12.0110           0   0.00000     -0.301140E-02
     14802 MEMB     120      PMPE     HS       HAL1     0.900000E-01   1.00800           0   0.00000     -0.301140E-02
     14803 MEMB     120      PMPE     O21      OSL     -0.490000       15.9994           0   0.00000     -0.301140E-02
     14804 MEMB     120      PMPE     C21      CL       0.900000       12.0110           0   0.00000     -0.301140E-02
     14805 MEMB     120      PMPE     O22      OBL     -0.630000       15.9994           0   0.00000     -0.301140E-02
     14806 MEMB     120      PMPE     C22      CTL2    -0.220000       12.0110           0   0.00000     -0.301140E-02
     14807 MEMB     120      PMPE     H2R      HAL2     0.900000E-01   1.00800           0   0.00000     -0.301140E-02
     14808 MEMB     120      PMPE     H2S      HAL2     0.900000E-01   1.00800           0   0.00000     -0.301140E-02
     14809 MEMB     120      PMPE     C3       CTL2     0.800000E-01   12.0110           0   0.00000     -0.301140E-02
     14810 MEMB     120      PMPE     HX       HAL2     0.900000E-01   1.00800           0   0.00000     -0.301140E-02
     14811 MEMB     120      PMPE     HY       HAL2     0.900000E-01   1.00800           0   0.00000     -0.301140E-02
     14812 MEMB     120      PMPE     O31      OSL     -0.490000       15.9994           0   0.00000     -0.301140E-02
     14813 MEMB     120      PMPE     C31      CL       0.900000       12.0110           0   0.00000     -0.301140E-02
     14814 MEMB     120      PMPE     O32      OBL     -0.630000       15.9994           0   0.00000     -0.301140E-02
     14815 MEMB     120      PMPE     C32      CTL2    -0.220000       12.0110           0   0.00000     -0.301140E-02
     14816 MEMB     120      PMPE     H2X      HAL2     0.900000E-01   1.00800           0   0.00000     -0.301140E-02
     14817 MEMB     120      PMPE     H2Y      HAL2     0.900000E-01   1.00800           0   0.00000     -0.301140E-02
     14818 MEMB     120      PMPE     C23      CTL2    -0.180000       12.0110           0   0.00000     -0.301140E-02
     14819 MEMB     120      PMPE     H3R      HAL2     0.900000E-01   1.00800           0   0.00000     -0.301140E-02
     14820 MEMB     120      PMPE     H3S      HAL2     0.900000E-01   1.00800           0   0.00000     -0.301140E-02
     14821 MEMB     120      PMPE     C24      CTL2    -0.180000       12.0110           0   0.00000     -0.301140E-02
     14822 MEMB     120      PMPE     H4R      HAL2     0.900000E-01   1.00800           0   0.00000     -0.301140E-02
     14823 MEMB     120      PMPE     H4S      HAL2     0.900000E-01   1.00800           0   0.00000     -0.301140E-02
     14824 MEMB     120      PMPE     C25      CTL2    -0.180000       12.0110           0   0.00000     -0.301140E-02
     14825 MEMB     120      PMPE     H5R      HAL2     0.900000E-01   1.00800           0   0.00000     -0.301140E-02
     14826 MEMB     120      PMPE     H5S      HAL2     0.900000E-01   1.00800           0   0.00000     -0.301140E-02
     14827 MEMB     120      PMPE     C26      CTL2    -0.180000       12.0110           0   0.00000     -0.301140E-02
     14828 MEMB     120      PMPE     H6R      HAL2     0.900000E-01   1.00800           0   0.00000     -0.301140E-02
     14829 MEMB     120      PMPE     H6S      HAL2     0.900000E-01   1.00800           0   0.00000     -0.301140E-02
     14830 MEMB     120      PMPE     C27      CTL2    -0.180000       12.0110           0   0.00000     -0.301140E-02
     14831 MEMB     120      PMPE     H7R      HAL2     0.900000E-01   1.00800           0   0.00000     -0.301140E-02
     14832 MEMB     120      PMPE     H7S      HAL2     0.900000E-01   1.00800           0   0.00000     -0.301140E-02
     14833 MEMB     120      PMPE     C28      CTL2    -0.180000       12.0110           0   0.00000     -0.301140E-02
     14834 MEMB     120      PMPE     H8R      HAL2     0.900000E-01   1.00800           0   0.00000     -0.301140E-02
     14835 MEMB     120      PMPE     H8S      HAL2     0.900000E-01   1.00800           0   0.00000     -0.301140E-02
     14836 MEMB     120      PMPE     C29      CG3RC1  -0.900000E-01   12.0110           0   0.00000     -0.301140E-02
     14837 MEMB     120      PMPE     H9R      HGA1     0.900000E-01   1.00800           0   0.00000     -0.301140E-02
     14838 MEMB     120      PMPE     C217     CG3C31  -0.180000       12.0110           0   0.00000     -0.301140E-02
     14839 MEMB     120      PMPE     H17R     HGA2     0.900000E-01   1.00800           0   0.00000     -0.301140E-02
     14840 MEMB     120      PMPE     H17S     HGA2     0.900000E-01   1.00800           0   0.00000     -0.301140E-02
     14841 MEMB     120      PMPE     C210     CG3RC1  -0.900000E-01   12.0110           0   0.00000     -0.301140E-02
     14842 MEMB     120      PMPE     H10R     HGA1     0.900000E-01   1.00800           0   0.00000     -0.301140E-02
     14843 MEMB     120      PMPE     C211     CTL2    -0.180000       12.0110           0   0.00000     -0.301140E-02
     14844 MEMB     120      PMPE     H11R     HAL2     0.900000E-01   1.00800           0   0.00000     -0.301140E-02
     14845 MEMB     120      PMPE     H11S     HAL2     0.900000E-01   1.00800           0   0.00000     -0.301140E-02
     14846 MEMB     120      PMPE     C212     CTL2    -0.180000       12.0110           0   0.00000     -0.301140E-02
     14847 MEMB     120      PMPE     H12R     HAL2     0.900000E-01   1.00800           0   0.00000     -0.301140E-02
     14848 MEMB     120      PMPE     H12S     HAL2     0.900000E-01   1.00800           0   0.00000     -0.301140E-02
     14849 MEMB     120      PMPE     C213     CTL2    -0.180000       12.0110           0   0.00000     -0.301140E-02
     14850 MEMB     120      PMPE     H13R     HAL2     0.900000E-01   1.00800           0   0.00000     -0.301140E-02
     14851 MEMB     120      PMPE     H13S     HAL2     0.900000E-01   1.00800           0   0.00000     -0.301140E-02
     14852 MEMB     120      PMPE     C214     CTL2    -0.180000       12.0110           0   0.00000     -0.301140E-02
     14853 MEMB     120      PMPE     H14R     HAL2     0.900000E-01   1.00800           0   0.00000     -0.301140E-02
     14854 MEMB     120      PMPE     H14S     HAL2     0.900000E-01   1.00800           0   0.00000     -0.301140E-02
     14855 MEMB     120      PMPE     C215     CTL2    -0.180000       12.0110           0   0.00000     -0.301140E-02
     14856 MEMB     120      PMPE     H15R     HAL2     0.900000E-01   1.00800           0   0.00000     -0.301140E-02
     14857 MEMB     120      PMPE     H15S     HAL2     0.900000E-01   1.00800           0   0.00000     -0.301140E-02
     14858 MEMB     120      PMPE     C216     CTL3    -0.270000       12.0110           0   0.00000     -0.301140E-02
     14859 MEMB     120      PMPE     H16R     HAL3     0.900000E-01   1.00800           0   0.00000     -0.301140E-02
     14860 MEMB     120      PMPE     H16S     HAL3     0.900000E-01   1.00800           0   0.00000     -0.301140E-02
     14861 MEMB     120      PMPE     H16T     HAL3     0.900000E-01   1.00800           0   0.00000     -0.301140E-02
     14862 MEMB     120      PMPE     C33      CTL2    -0.180000       12.0110           0   0.00000     -0.301140E-02
     14863 MEMB     120      PMPE     H3X      HAL2     0.900000E-01   1.00800           0   0.00000     -0.301140E-02
     14864 MEMB     120      PMPE     H3Y      HAL2     0.900000E-01   1.00800           0   0.00000     -0.301140E-02
     14865 MEMB     120      PMPE     C34      CTL2    -0.180000       12.0110           0   0.00000     -0.301140E-02
     14866 MEMB     120      PMPE     H4X      HAL2     0.900000E-01   1.00800           0   0.00000     -0.301140E-02
     14867 MEMB     120      PMPE     H4Y      HAL2     0.900000E-01   1.00800           0   0.00000     -0.301140E-02
     14868 MEMB     120      PMPE     C35      CTL2    -0.180000       12.0110           0   0.00000     -0.301140E-02
     14869 MEMB     120      PMPE     H5X      HAL2     0.900000E-01   1.00800           0   0.00000     -0.301140E-02
     14870 MEMB     120      PMPE     H5Y      HAL2     0.900000E-01   1.00800           0   0.00000     -0.301140E-02
     14871 MEMB     120      PMPE     C36      CTL2    -0.180000       12.0110           0   0.00000     -0.301140E-02
     14872 MEMB     120      PMPE     H6X      HAL2     0.900000E-01   1.00800           0   0.00000     -0.301140E-02
     14873 MEMB     120      PMPE     H6Y      HAL2     0.900000E-01   1.00800           0   0.00000     -0.301140E-02
     14874 MEMB     120      PMPE     C37      CTL2    -0.180000       12.0110           0   0.00000     -0.301140E-02
     14875 MEMB     120      PMPE     H7X      HAL2     0.900000E-01   1.00800           0   0.00000     -0.301140E-02
     14876 MEMB     120      PMPE     H7Y      HAL2     0.900000E-01   1.00800           0   0.00000     -0.301140E-02
     14877 MEMB     120      PMPE     C38      CTL2    -0.180000       12.0110           0   0.00000     -0.301140E-02
     14878 MEMB     120      PMPE     H8X      HAL2     0.900000E-01   1.00800           0   0.00000     -0.301140E-02
     14879 MEMB     120      PMPE     H8Y      HAL2     0.900000E-01   1.00800           0   0.00000     -0.301140E-02
     14880 MEMB     120      PMPE     C39      CTL2    -0.180000       12.0110           0   0.00000     -0.301140E-02
     14881 MEMB     120      PMPE     H9X      HAL2     0.900000E-01   1.00800           0   0.00000     -0.301140E-02
     14882 MEMB     120      PMPE     H9Y      HAL2     0.900000E-01   1.00800           0   0.00000     -0.301140E-02
     14883 MEMB     120      PMPE     C310     CTL2    -0.180000       12.0110           0   0.00000     -0.301140E-02
     14884 MEMB     120      PMPE     H10X     HAL2     0.900000E-01   1.00800           0   0.00000     -0.301140E-02
     14885 MEMB     120      PMPE     H10Y     HAL2     0.900000E-01   1.00800           0   0.00000     -0.301140E-02
     14886 MEMB     120      PMPE     C311     CTL2    -0.180000       12.0110           0   0.00000     -0.301140E-02
     14887 MEMB     120      PMPE     H11X     HAL2     0.900000E-01   1.00800           0   0.00000     -0.301140E-02
     14888 MEMB     120      PMPE     H11Y     HAL2     0.900000E-01   1.00800           0   0.00000     -0.301140E-02
     14889 MEMB     120      PMPE     C312     CTL2    -0.180000       12.0110           0   0.00000     -0.301140E-02
     14890 MEMB     120      PMPE     H12X     HAL2     0.900000E-01   1.00800           0   0.00000     -0.301140E-02
     14891 MEMB     120      PMPE     H12Y     HAL2     0.900000E-01   1.00800           0   0.00000     -0.301140E-02
     14892 MEMB     120      PMPE     C313     CTL2    -0.180000       12.0110           0   0.00000     -0.301140E-02
     14893 MEMB     120      PMPE     H13X     HAL2     0.900000E-01   1.00800           0   0.00000     -0.301140E-02
     14894 MEMB     120      PMPE     H13Y     HAL2     0.900000E-01   1.00800           0   0.00000     -0.301140E-02
     14895 MEMB     120      PMPE     C314     CTL2    -0.180000       12.0110           0   0.00000     -0.301140E-02
     14896 MEMB     120      PMPE     H14X     HAL2     0.900000E-01   1.00800           0   0.00000     -0.301140E-02
     14897 MEMB     120      PMPE     H14Y     HAL2     0.900000E-01   1.00800           0   0.00000     -0.301140E-02
     14898 MEMB     120      PMPE     C315     CTL2    -0.180000       12.0110           0   0.00000     -0.301140E-02
     14899 MEMB     120      PMPE     H15X     HAL2     0.900000E-01   1.00800           0   0.00000     -0.301140E-02
     14900 MEMB     120      PMPE     H15Y     HAL2     0.900000E-01   1.00800           0   0.00000     -0.301140E-02
     14901 MEMB     120      PMPE     C316     CTL3    -0.270000       12.0110           0   0.00000     -0.301140E-02
     14902 MEMB     120      PMPE     H16X     HAL3     0.900000E-01   1.00800           0   0.00000     -0.301140E-02
     14903 MEMB     120      PMPE     H16Y     HAL3     0.900000E-01   1.00800           0   0.00000     -0.301140E-02
     14904 MEMB     120      PMPE     H16Z     HAL3     0.900000E-01   1.00800           0   0.00000     -0.301140E-02
     14905 MEMB     121      OYPE     N        NH3L    -0.300000       14.0070           0   0.00000     -0.301140E-02
     14906 MEMB     121      OYPE     HN1      HCL      0.330000       1.00800           0   0.00000     -0.301140E-02
     14907 MEMB     121      OYPE     HN2      HCL      0.330000       1.00800           0   0.00000     -0.301140E-02
     14908 MEMB     121      OYPE     HN3      HCL      0.330000       1.00800           0   0.00000     -0.301140E-02
     14909 MEMB     121      OYPE     C12      CTL2     0.130000       12.0110           0   0.00000     -0.301140E-02
     14910 MEMB     121      OYPE     H12A     HAL2     0.900000E-01   1.00800           0   0.00000     -0.301140E-02
     14911 MEMB     121      OYPE     H12B     HAL2     0.900000E-01   1.00800           0   0.00000     -0.301140E-02
     14912 MEMB     121      OYPE     C11      CTL2    -0.800000E-01   12.0110           0   0.00000     -0.301140E-02
     14913 MEMB     121      OYPE     H11A     HAL2     0.900000E-01   1.00800           0   0.00000     -0.301140E-02
     14914 MEMB     121      OYPE     H11B     HAL2     0.900000E-01   1.00800           0   0.00000     -0.301140E-02
     14915 MEMB     121      OYPE     P        PL        1.50000       30.9740           0   0.00000     -0.301140E-02
     14916 MEMB     121      OYPE     O13      O2L     -0.780000       15.9994           0   0.00000     -0.301140E-02
     14917 MEMB     121      OYPE     O14      O2L     -0.780000       15.9994           0   0.00000     -0.301140E-02
     14918 MEMB     121      OYPE     O11      OSLP    -0.570000       15.9994           0   0.00000     -0.301140E-02
     14919 MEMB     121      OYPE     O12      OSLP    -0.570000       15.9994           0   0.00000     -0.301140E-02
     14920 MEMB     121      OYPE     C1       CTL2    -0.800000E-01   12.0110           0   0.00000     -0.301140E-02
     14921 MEMB     121      OYPE     HA       HAL2     0.900000E-01   1.00800           0   0.00000     -0.301140E-02
     14922 MEMB     121      OYPE     HB       HAL2     0.900000E-01   1.00800           0   0.00000     -0.301140E-02
     14923 MEMB     121      OYPE     C2       CTL1     0.170000       12.0110           0   0.00000     -0.301140E-02
     14924 MEMB     121      OYPE     HS       HAL1     0.900000E-01   1.00800           0   0.00000     -0.301140E-02
     14925 MEMB     121      OYPE     O21      OSL     -0.490000       15.9994           0   0.00000     -0.301140E-02
     14926 MEMB     121      OYPE     C21      CL       0.900000       12.0110           0   0.00000     -0.301140E-02
     14927 MEMB     121      OYPE     O22      OBL     -0.630000       15.9994           0   0.00000     -0.301140E-02
     14928 MEMB     121      OYPE     C22      CTL2    -0.220000       12.0110           0   0.00000     -0.301140E-02
     14929 MEMB     121      OYPE     H2R      HAL2     0.900000E-01   1.00800           0   0.00000     -0.301140E-02
     14930 MEMB     121      OYPE     H2S      HAL2     0.900000E-01   1.00800           0   0.00000     -0.301140E-02
     14931 MEMB     121      OYPE     C3       CTL2     0.800000E-01   12.0110           0   0.00000     -0.301140E-02
     14932 MEMB     121      OYPE     HX       HAL2     0.900000E-01   1.00800           0   0.00000     -0.301140E-02
     14933 MEMB     121      OYPE     HY       HAL2     0.900000E-01   1.00800           0   0.00000     -0.301140E-02
     14934 MEMB     121      OYPE     O31      OSL     -0.490000       15.9994           0   0.00000     -0.301140E-02
     14935 MEMB     121      OYPE     C31      CL       0.900000       12.0110           0   0.00000     -0.301140E-02
     14936 MEMB     121      OYPE     O32      OBL     -0.630000       15.9994           0   0.00000     -0.301140E-02
     14937 MEMB     121      OYPE     C32      CTL2    -0.220000       12.0110           0   0.00000     -0.301140E-02
     14938 MEMB     121      OYPE     H2X      HAL2     0.900000E-01   1.00800           0   0.00000     -0.301140E-02
     14939 MEMB     121      OYPE     H2Y      HAL2     0.900000E-01   1.00800           0   0.00000     -0.301140E-02
     14940 MEMB     121      OYPE     C23      CTL2    -0.180000       12.0110           0   0.00000     -0.301140E-02
     14941 MEMB     121      OYPE     H3R      HAL2     0.900000E-01   1.00800           0   0.00000     -0.301140E-02
     14942 MEMB     121      OYPE     H3S      HAL2     0.900000E-01   1.00800           0   0.00000     -0.301140E-02
     14943 MEMB     121      OYPE     C24      CTL2    -0.180000       12.0110           0   0.00000     -0.301140E-02
     14944 MEMB     121      OYPE     H4R      HAL2     0.900000E-01   1.00800           0   0.00000     -0.301140E-02
     14945 MEMB     121      OYPE     H4S      HAL2     0.900000E-01   1.00800           0   0.00000     -0.301140E-02
     14946 MEMB     121      OYPE     C25      CTL2    -0.180000       12.0110           0   0.00000     -0.301140E-02
     14947 MEMB     121      OYPE     H5R      HAL2     0.900000E-01   1.00800           0   0.00000     -0.301140E-02
     14948 MEMB     121      OYPE     H5S      HAL2     0.900000E-01   1.00800           0   0.00000     -0.301140E-02
     14949 MEMB     121      OYPE     C26      CTL2    -0.180000       12.0110           0   0.00000     -0.301140E-02
     14950 MEMB     121      OYPE     H6R      HAL2     0.900000E-01   1.00800           0   0.00000     -0.301140E-02
     14951 MEMB     121      OYPE     H6S      HAL2     0.900000E-01   1.00800           0   0.00000     -0.301140E-02
     14952 MEMB     121      OYPE     C27      CTL2    -0.180000       12.0110           0   0.00000     -0.301140E-02
     14953 MEMB     121      OYPE     H7R      HAL2     0.900000E-01   1.00800           0   0.00000     -0.301140E-02
     14954 MEMB     121      OYPE     H7S      HAL2     0.900000E-01   1.00800           0   0.00000     -0.301140E-02
     14955 MEMB     121      OYPE     C28      CTL2    -0.180000       12.0110           0   0.00000     -0.301140E-02
     14956 MEMB     121      OYPE     H8R      HAL2     0.900000E-01   1.00800           0   0.00000     -0.301140E-02
     14957 MEMB     121      OYPE     H8S      HAL2     0.900000E-01   1.00800           0   0.00000     -0.301140E-02
     14958 MEMB     121      OYPE     C29      CEL1    -0.150000       12.0110           0   0.00000     -0.301140E-02
     14959 MEMB     121      OYPE     H9R      HEL1     0.150000       1.00800           0   0.00000     -0.301140E-02
     14960 MEMB     121      OYPE     C210     CEL1    -0.150000       12.0110           0   0.00000     -0.301140E-02
     14961 MEMB     121      OYPE     H10R     HEL1     0.150000       1.00800           0   0.00000     -0.301140E-02
     14962 MEMB     121      OYPE     C211     CTL2    -0.180000       12.0110           0   0.00000     -0.301140E-02
     14963 MEMB     121      OYPE     H11R     HAL2     0.900000E-01   1.00800           0   0.00000     -0.301140E-02
     14964 MEMB     121      OYPE     H11S     HAL2     0.900000E-01   1.00800           0   0.00000     -0.301140E-02
     14965 MEMB     121      OYPE     C212     CTL2    -0.180000       12.0110           0   0.00000     -0.301140E-02
     14966 MEMB     121      OYPE     H12R     HAL2     0.900000E-01   1.00800           0   0.00000     -0.301140E-02
     14967 MEMB     121      OYPE     H12S     HAL2     0.900000E-01   1.00800           0   0.00000     -0.301140E-02
     14968 MEMB     121      OYPE     C213     CTL2    -0.180000       12.0110           0   0.00000     -0.301140E-02
     14969 MEMB     121      OYPE     H13R     HAL2     0.900000E-01   1.00800           0   0.00000     -0.301140E-02
     14970 MEMB     121      OYPE     H13S     HAL2     0.900000E-01   1.00800           0   0.00000     -0.301140E-02
     14971 MEMB     121      OYPE     C214     CTL2    -0.180000       12.0110           0   0.00000     -0.301140E-02
     14972 MEMB     121      OYPE     H14R     HAL2     0.900000E-01   1.00800           0   0.00000     -0.301140E-02
     14973 MEMB     121      OYPE     H14S     HAL2     0.900000E-01   1.00800           0   0.00000     -0.301140E-02
     14974 MEMB     121      OYPE     C215     CTL2    -0.180000       12.0110           0   0.00000     -0.301140E-02
     14975 MEMB     121      OYPE     H15R     HAL2     0.900000E-01   1.00800           0   0.00000     -0.301140E-02
     14976 MEMB     121      OYPE     H15S     HAL2     0.900000E-01   1.00800           0   0.00000     -0.301140E-02
     14977 MEMB     121      OYPE     C216     CTL3    -0.270000       12.0110           0   0.00000     -0.301140E-02
     14978 MEMB     121      OYPE     H16R     HAL3     0.900000E-01   1.00800           0   0.00000     -0.301140E-02
     14979 MEMB     121      OYPE     H16S     HAL3     0.900000E-01   1.00800           0   0.00000     -0.301140E-02
     14980 MEMB     121      OYPE     H16T     HAL3     0.900000E-01   1.00800           0   0.00000     -0.301140E-02
     14981 MEMB     121      OYPE     C33      CTL2    -0.180000       12.0110           0   0.00000     -0.301140E-02
     14982 MEMB     121      OYPE     H3X      HAL2     0.900000E-01   1.00800           0   0.00000     -0.301140E-02
     14983 MEMB     121      OYPE     H3Y      HAL2     0.900000E-01   1.00800           0   0.00000     -0.301140E-02
     14984 MEMB     121      OYPE     C34      CTL2    -0.180000       12.0110           0   0.00000     -0.301140E-02
     14985 MEMB     121      OYPE     H4X      HAL2     0.900000E-01   1.00800           0   0.00000     -0.301140E-02
     14986 MEMB     121      OYPE     H4Y      HAL2     0.900000E-01   1.00800           0   0.00000     -0.301140E-02
     14987 MEMB     121      OYPE     C35      CTL2    -0.180000       12.0110           0   0.00000     -0.301140E-02
     14988 MEMB     121      OYPE     H5X      HAL2     0.900000E-01   1.00800           0   0.00000     -0.301140E-02
     14989 MEMB     121      OYPE     H5Y      HAL2     0.900000E-01   1.00800           0   0.00000     -0.301140E-02
     14990 MEMB     121      OYPE     C36      CTL2    -0.180000       12.0110           0   0.00000     -0.301140E-02
     14991 MEMB     121      OYPE     H6X      HAL2     0.900000E-01   1.00800           0   0.00000     -0.301140E-02
     14992 MEMB     121      OYPE     H6Y      HAL2     0.900000E-01   1.00800           0   0.00000     -0.301140E-02
     14993 MEMB     121      OYPE     C37      CTL2    -0.180000       12.0110           0   0.00000     -0.301140E-02
     14994 MEMB     121      OYPE     H7X      HAL2     0.900000E-01   1.00800           0   0.00000     -0.301140E-02
     14995 MEMB     121      OYPE     H7Y      HAL2     0.900000E-01   1.00800           0   0.00000     -0.301140E-02
     14996 MEMB     121      OYPE     C38      CTL2    -0.180000       12.0110           0   0.00000     -0.301140E-02
     14997 MEMB     121      OYPE     H8X      HAL2     0.900000E-01   1.00800           0   0.00000     -0.301140E-02
     14998 MEMB     121      OYPE     H8Y      HAL2     0.900000E-01   1.00800           0   0.00000     -0.301140E-02
     14999 MEMB     121      OYPE     C39      CEL1    -0.150000       12.0110           0   0.00000     -0.301140E-02
     15000 MEMB     121      OYPE     H9X      HEL1     0.150000       1.00800           0   0.00000     -0.301140E-02
     15001 MEMB     121      OYPE     C310     CEL1    -0.150000       12.0110           0   0.00000     -0.301140E-02
     15002 MEMB     121      OYPE     H10X     HEL1     0.150000       1.00800           0   0.00000     -0.301140E-02
     15003 MEMB     121      OYPE     C311     CTL2    -0.180000       12.0110           0   0.00000     -0.301140E-02
     15004 MEMB     121      OYPE     H11X     HAL2     0.900000E-01   1.00800           0   0.00000     -0.301140E-02
     15005 MEMB     121      OYPE     H11Y     HAL2     0.900000E-01   1.00800           0   0.00000     -0.301140E-02
     15006 MEMB     121      OYPE     C312     CTL2    -0.180000       12.0110           0   0.00000     -0.301140E-02
     15007 MEMB     121      OYPE     H12X     HAL2     0.900000E-01   1.00800           0   0.00000     -0.301140E-02
     15008 MEMB     121      OYPE     H12Y     HAL2     0.900000E-01   1.00800           0   0.00000     -0.301140E-02
     15009 MEMB     121      OYPE     C313     CTL2    -0.180000       12.0110           0   0.00000     -0.301140E-02
     15010 MEMB     121      OYPE     H13X     HAL2     0.900000E-01   1.00800           0   0.00000     -0.301140E-02
     15011 MEMB     121      OYPE     H13Y     HAL2     0.900000E-01   1.00800           0   0.00000     -0.301140E-02
     15012 MEMB     121      OYPE     C314     CTL2    -0.180000       12.0110           0   0.00000     -0.301140E-02
     15013 MEMB     121      OYPE     H14X     HAL2     0.900000E-01   1.00800           0   0.00000     -0.301140E-02
     15014 MEMB     121      OYPE     H14Y     HAL2     0.900000E-01   1.00800           0   0.00000     -0.301140E-02
     15015 MEMB     121      OYPE     C315     CTL2    -0.180000       12.0110           0   0.00000     -0.301140E-02
     15016 MEMB     121      OYPE     H15X     HAL2     0.900000E-01   1.00800           0   0.00000     -0.301140E-02
     15017 MEMB     121      OYPE     H15Y     HAL2     0.900000E-01   1.00800           0   0.00000     -0.301140E-02
     15018 MEMB     121      OYPE     C316     CTL2    -0.180000       12.0110           0   0.00000     -0.301140E-02
     15019 MEMB     121      OYPE     H16X     HAL2     0.900000E-01   1.00800           0   0.00000     -0.301140E-02
     15020 MEMB     121      OYPE     H16Y     HAL2     0.900000E-01   1.00800           0   0.00000     -0.301140E-02
     15021 MEMB     121      OYPE     C317     CTL2    -0.180000       12.0110           0   0.00000     -0.301140E-02
     15022 MEMB     121      OYPE     H17X     HAL2     0.900000E-01   1.00800           0   0.00000     -0.301140E-02
     15023 MEMB     121      OYPE     H17Y     HAL2     0.900000E-01   1.00800           0   0.00000     -0.301140E-02
     15024 MEMB     121      OYPE     C318     CTL3    -0.270000       12.0110           0   0.00000     -0.301140E-02
     15025 MEMB     121      OYPE     H18X     HAL3     0.900000E-01   1.00800           0   0.00000     -0.301140E-02
     15026 MEMB     121      OYPE     H18Y     HAL3     0.900000E-01   1.00800           0   0.00000     -0.301140E-02
     15027 MEMB     121      OYPE     H18Z     HAL3     0.900000E-01   1.00800           0   0.00000     -0.301140E-02
     15028 MEMB     122      PVCL2    C3       CTL2    -0.800000E-01   12.0110           0   0.00000     -0.301140E-02
     15029 MEMB     122      PVCL2    HG31     HAL2     0.900000E-01   1.00800           0   0.00000     -0.301140E-02
     15030 MEMB     122      PVCL2    HG32     HAL2     0.900000E-01   1.00800           0   0.00000     -0.301140E-02
     15031 MEMB     122      PVCL2    P3       PL        1.50000       30.9740           0   0.00000     -0.301140E-02
     15032 MEMB     122      PVCL2    OP33     O2L     -0.780000       15.9994           0   0.00000     -0.301140E-02
     15033 MEMB     122      PVCL2    OP34     O2L     -0.780000       15.9994           0   0.00000     -0.301140E-02
     15034 MEMB     122      PVCL2    OP31     OSLP    -0.570000       15.9994           0   0.00000     -0.301140E-02
     15035 MEMB     122      PVCL2    OP32     OSLP    -0.570000       15.9994           0   0.00000     -0.301140E-02
     15036 MEMB     122      PVCL2    C31      CTL2    -0.800000E-01   12.0110           0   0.00000     -0.301140E-02
     15037 MEMB     122      PVCL2    H31J     HAL2     0.900000E-01   1.00800           0   0.00000     -0.301140E-02
     15038 MEMB     122      PVCL2    H31K     HAL2     0.900000E-01   1.00800           0   0.00000     -0.301140E-02
     15039 MEMB     122      PVCL2    C2       CTL1     0.140000       12.0110           0   0.00000     -0.301140E-02
     15040 MEMB     122      PVCL2    HG22     HAL1     0.900000E-01   1.00800           0   0.00000     -0.301140E-02
     15041 MEMB     122      PVCL2    OG12     OHL     -0.650000       15.9994           0   0.00000     -0.301140E-02
     15042 MEMB     122      PVCL2    HO12     HOL      0.420000       1.00800           0   0.00000     -0.301140E-02
     15043 MEMB     122      PVCL2    C1       CTL2    -0.800000E-01   12.0110           0   0.00000     -0.301140E-02
     15044 MEMB     122      PVCL2    HG11     HAL2     0.900000E-01   1.00800           0   0.00000     -0.301140E-02
     15045 MEMB     122      PVCL2    HG12     HAL2     0.900000E-01   1.00800           0   0.00000     -0.301140E-02
     15046 MEMB     122      PVCL2    P1       PL        1.50000       30.9740           0   0.00000     -0.301140E-02
     15047 MEMB     122      PVCL2    OP13     O2L     -0.780000       15.9994           0   0.00000     -0.301140E-02
     15048 MEMB     122      PVCL2    OP14     O2L     -0.780000       15.9994           0   0.00000     -0.301140E-02
     15049 MEMB     122      PVCL2    OP11     OSLP    -0.570000       15.9994           0   0.00000     -0.301140E-02
     15050 MEMB     122      PVCL2    OP12     OSLP    -0.570000       15.9994           0   0.00000     -0.301140E-02
     15051 MEMB     122      PVCL2    C11      CTL2    -0.800000E-01   12.0110           0   0.00000     -0.301140E-02
     15052 MEMB     122      PVCL2    H11J     HAL2     0.900000E-01   1.00800           0   0.00000     -0.301140E-02
     15053 MEMB     122      PVCL2    H11K     HAL2     0.900000E-01   1.00800           0   0.00000     -0.301140E-02
     15054 MEMB     122      PVCL2    C12      CTL1     0.170000       12.0110           0   0.00000     -0.301140E-02
     15055 MEMB     122      PVCL2    H12J     HAL1     0.900000E-01   1.00800           0   0.00000     -0.301140E-02
     15056 MEMB     122      PVCL2    O12      OSL     -0.490000       15.9994           0   0.00000     -0.301140E-02
     15057 MEMB     122      PVCL2    CA1      CL       0.900000       12.0110           0   0.00000     -0.301140E-02
     15058 MEMB     122      PVCL2    OA1      OBL     -0.630000       15.9994           0   0.00000     -0.301140E-02
     15059 MEMB     122      PVCL2    CA2      CTL2    -0.220000       12.0110           0   0.00000     -0.301140E-02
     15060 MEMB     122      PVCL2    H2A      HAL2     0.900000E-01   1.00800           0   0.00000     -0.301140E-02
     15061 MEMB     122      PVCL2    H2B      HAL2     0.900000E-01   1.00800           0   0.00000     -0.301140E-02
     15062 MEMB     122      PVCL2    C13      CTL2     0.800000E-01   12.0110           0   0.00000     -0.301140E-02
     15063 MEMB     122      PVCL2    H13J     HAL2     0.900000E-01   1.00800           0   0.00000     -0.301140E-02
     15064 MEMB     122      PVCL2    H13K     HAL2     0.900000E-01   1.00800           0   0.00000     -0.301140E-02
     15065 MEMB     122      PVCL2    O13      OSL     -0.490000       15.9994           0   0.00000     -0.301140E-02
     15066 MEMB     122      PVCL2    CB1      CL       0.900000       12.0110           0   0.00000     -0.301140E-02
     15067 MEMB     122      PVCL2    OB1      OBL     -0.630000       15.9994           0   0.00000     -0.301140E-02
     15068 MEMB     122      PVCL2    CB2      CTL2    -0.220000       12.0110           0   0.00000     -0.301140E-02
     15069 MEMB     122      PVCL2    H2D      HAL2     0.900000E-01   1.00800           0   0.00000     -0.301140E-02
     15070 MEMB     122      PVCL2    H2E      HAL2     0.900000E-01   1.00800           0   0.00000     -0.301140E-02
     15071 MEMB     122      PVCL2    C32      CTL1     0.170000       12.0110           0   0.00000     -0.301140E-02
     15072 MEMB     122      PVCL2    H32J     HAL1     0.900000E-01   1.00800           0   0.00000     -0.301140E-02
     15073 MEMB     122      PVCL2    O32      OSL     -0.490000       15.9994           0   0.00000     -0.301140E-02
     15074 MEMB     122      PVCL2    CC1      CL       0.900000       12.0110           0   0.00000     -0.301140E-02
     15075 MEMB     122      PVCL2    OC1      OBL     -0.630000       15.9994           0   0.00000     -0.301140E-02
     15076 MEMB     122      PVCL2    CC2      CTL2    -0.220000       12.0110           0   0.00000     -0.301140E-02
     15077 MEMB     122      PVCL2    H2R      HAL2     0.900000E-01   1.00800           0   0.00000     -0.301140E-02
     15078 MEMB     122      PVCL2    H2S      HAL2     0.900000E-01   1.00800           0   0.00000     -0.301140E-02
     15079 MEMB     122      PVCL2    C33      CTL2     0.800000E-01   12.0110           0   0.00000     -0.301140E-02
     15080 MEMB     122      PVCL2    H33J     HAL2     0.900000E-01   1.00800           0   0.00000     -0.301140E-02
     15081 MEMB     122      PVCL2    H33K     HAL2     0.900000E-01   1.00800           0   0.00000     -0.301140E-02
     15082 MEMB     122      PVCL2    O33      OSL     -0.490000       15.9994           0   0.00000     -0.301140E-02
     15083 MEMB     122      PVCL2    CD1      CL       0.900000       12.0110           0   0.00000     -0.301140E-02
     15084 MEMB     122      PVCL2    OD1      OBL     -0.630000       15.9994           0   0.00000     -0.301140E-02
     15085 MEMB     122      PVCL2    CD2      CTL2    -0.220000       12.0110           0   0.00000     -0.301140E-02
     15086 MEMB     122      PVCL2    H2X      HAL2     0.900000E-01   1.00800           0   0.00000     -0.301140E-02
     15087 MEMB     122      PVCL2    H2Y      HAL2     0.900000E-01   1.00800           0   0.00000     -0.301140E-02
     15088 MEMB     122      PVCL2    CA3      CTL2    -0.180000       12.0110           0   0.00000     -0.301140E-02
     15089 MEMB     122      PVCL2    H3A      HAL2     0.900000E-01   1.00800           0   0.00000     -0.301140E-02
     15090 MEMB     122      PVCL2    H3B      HAL2     0.900000E-01   1.00800           0   0.00000     -0.301140E-02
     15091 MEMB     122      PVCL2    CA4      CTL2    -0.180000       12.0110           0   0.00000     -0.301140E-02
     15092 MEMB     122      PVCL2    H4A      HAL2     0.900000E-01   1.00800           0   0.00000     -0.301140E-02
     15093 MEMB     122      PVCL2    H4B      HAL2     0.900000E-01   1.00800           0   0.00000     -0.301140E-02
     15094 MEMB     122      PVCL2    CA5      CTL2    -0.180000       12.0110           0   0.00000     -0.301140E-02
     15095 MEMB     122      PVCL2    H5A      HAL2     0.900000E-01   1.00800           0   0.00000     -0.301140E-02
     15096 MEMB     122      PVCL2    H5B      HAL2     0.900000E-01   1.00800           0   0.00000     -0.301140E-02
     15097 MEMB     122      PVCL2    CA6      CTL2    -0.180000       12.0110           0   0.00000     -0.301140E-02
     15098 MEMB     122      PVCL2    H6A      HAL2     0.900000E-01   1.00800           0   0.00000     -0.301140E-02
     15099 MEMB     122      PVCL2    H6B      HAL2     0.900000E-01   1.00800           0   0.00000     -0.301140E-02
     15100 MEMB     122      PVCL2    CA7      CTL2    -0.180000       12.0110           0   0.00000     -0.301140E-02
     15101 MEMB     122      PVCL2    H7A      HAL2     0.900000E-01   1.00800           0   0.00000     -0.301140E-02
     15102 MEMB     122      PVCL2    H7B      HAL2     0.900000E-01   1.00800           0   0.00000     -0.301140E-02
     15103 MEMB     122      PVCL2    CA8      CTL2    -0.180000       12.0110           0   0.00000     -0.301140E-02
     15104 MEMB     122      PVCL2    H8A      HAL2     0.900000E-01   1.00800           0   0.00000     -0.301140E-02
     15105 MEMB     122      PVCL2    H8B      HAL2     0.900000E-01   1.00800           0   0.00000     -0.301140E-02
     15106 MEMB     122      PVCL2    CA9      CTL2    -0.180000       12.0110           0   0.00000     -0.301140E-02
     15107 MEMB     122      PVCL2    H9A      HAL2     0.900000E-01   1.00800           0   0.00000     -0.301140E-02
     15108 MEMB     122      PVCL2    H9B      HAL2     0.900000E-01   1.00800           0   0.00000     -0.301140E-02
     15109 MEMB     122      PVCL2    CA10     CTL2    -0.180000       12.0110           0   0.00000     -0.301140E-02
     15110 MEMB     122      PVCL2    H10A     HAL2     0.900000E-01   1.00800           0   0.00000     -0.301140E-02
     15111 MEMB     122      PVCL2    H10B     HAL2     0.900000E-01   1.00800           0   0.00000     -0.301140E-02
     15112 MEMB     122      PVCL2    CA11     CEL1    -0.150000       12.0110           0   0.00000     -0.301140E-02
     15113 MEMB     122      PVCL2    H11A     HEL1     0.150000       1.00800           0   0.00000     -0.301140E-02
     15114 MEMB     122      PVCL2    CA12     CEL1    -0.150000       12.0110           0   0.00000     -0.301140E-02
     15115 MEMB     122      PVCL2    H12A     HEL1     0.150000       1.00800           0   0.00000     -0.301140E-02
     15116 MEMB     122      PVCL2    CA13     CTL2    -0.180000       12.0110           0   0.00000     -0.301140E-02
     15117 MEMB     122      PVCL2    H13A     HAL2     0.900000E-01   1.00800           0   0.00000     -0.301140E-02
     15118 MEMB     122      PVCL2    H13B     HAL2     0.900000E-01   1.00800           0   0.00000     -0.301140E-02
     15119 MEMB     122      PVCL2    CA14     CTL2    -0.180000       12.0110           0   0.00000     -0.301140E-02
     15120 MEMB     122      PVCL2    H14A     HAL2     0.900000E-01   1.00800           0   0.00000     -0.301140E-02
     15121 MEMB     122      PVCL2    H14B     HAL2     0.900000E-01   1.00800           0   0.00000     -0.301140E-02
     15122 MEMB     122      PVCL2    CA15     CTL2    -0.180000       12.0110           0   0.00000     -0.301140E-02
     15123 MEMB     122      PVCL2    H15A     HAL2     0.900000E-01   1.00800           0   0.00000     -0.301140E-02
     15124 MEMB     122      PVCL2    H15B     HAL2     0.900000E-01   1.00800           0   0.00000     -0.301140E-02
     15125 MEMB     122      PVCL2    CA16     CTL2    -0.180000       12.0110           0   0.00000     -0.301140E-02
     15126 MEMB     122      PVCL2    H16A     HAL2     0.900000E-01   1.00800           0   0.00000     -0.301140E-02
     15127 MEMB     122      PVCL2    H16B     HAL2     0.900000E-01   1.00800           0   0.00000     -0.301140E-02
     15128 MEMB     122      PVCL2    CA17     CTL2    -0.180000       12.0110           0   0.00000     -0.301140E-02
     15129 MEMB     122      PVCL2    H17A     HAL2     0.900000E-01   1.00800           0   0.00000     -0.301140E-02
     15130 MEMB     122      PVCL2    H17B     HAL2     0.900000E-01   1.00800           0   0.00000     -0.301140E-02
     15131 MEMB     122      PVCL2    CA18     CTL3    -0.270000       12.0110           0   0.00000     -0.301140E-02
     15132 MEMB     122      PVCL2    H18A     HAL3     0.900000E-01   1.00800           0   0.00000     -0.301140E-02
     15133 MEMB     122      PVCL2    H18B     HAL3     0.900000E-01   1.00800           0   0.00000     -0.301140E-02
     15134 MEMB     122      PVCL2    H18C     HAL3     0.900000E-01   1.00800           0   0.00000     -0.301140E-02
     15135 MEMB     122      PVCL2    CB3      CTL2    -0.180000       12.0110           0   0.00000     -0.301140E-02
     15136 MEMB     122      PVCL2    H3D      HAL2     0.900000E-01   1.00800           0   0.00000     -0.301140E-02
     15137 MEMB     122      PVCL2    H3E      HAL2     0.900000E-01   1.00800           0   0.00000     -0.301140E-02
     15138 MEMB     122      PVCL2    CB4      CTL2    -0.180000       12.0110           0   0.00000     -0.301140E-02
     15139 MEMB     122      PVCL2    H4D      HAL2     0.900000E-01   1.00800           0   0.00000     -0.301140E-02
     15140 MEMB     122      PVCL2    H4E      HAL2     0.900000E-01   1.00800           0   0.00000     -0.301140E-02
     15141 MEMB     122      PVCL2    CB5      CTL2    -0.180000       12.0110           0   0.00000     -0.301140E-02
     15142 MEMB     122      PVCL2    H5D      HAL2     0.900000E-01   1.00800           0   0.00000     -0.301140E-02
     15143 MEMB     122      PVCL2    H5E      HAL2     0.900000E-01   1.00800           0   0.00000     -0.301140E-02
     15144 MEMB     122      PVCL2    CB6      CTL2    -0.180000       12.0110           0   0.00000     -0.301140E-02
     15145 MEMB     122      PVCL2    H6D      HAL2     0.900000E-01   1.00800           0   0.00000     -0.301140E-02
     15146 MEMB     122      PVCL2    H6E      HAL2     0.900000E-01   1.00800           0   0.00000     -0.301140E-02
     15147 MEMB     122      PVCL2    CB7      CTL2    -0.180000       12.0110           0   0.00000     -0.301140E-02
     15148 MEMB     122      PVCL2    H7D      HAL2     0.900000E-01   1.00800           0   0.00000     -0.301140E-02
     15149 MEMB     122      PVCL2    H7E      HAL2     0.900000E-01   1.00800           0   0.00000     -0.301140E-02
     15150 MEMB     122      PVCL2    CB8      CTL2    -0.180000       12.0110           0   0.00000     -0.301140E-02
     15151 MEMB     122      PVCL2    H8D      HAL2     0.900000E-01   1.00800           0   0.00000     -0.301140E-02
     15152 MEMB     122      PVCL2    H8E      HAL2     0.900000E-01   1.00800           0   0.00000     -0.301140E-02
     15153 MEMB     122      PVCL2    CB9      CTL2    -0.180000       12.0110           0   0.00000     -0.301140E-02
     15154 MEMB     122      PVCL2    H9D      HAL2     0.900000E-01   1.00800           0   0.00000     -0.301140E-02
     15155 MEMB     122      PVCL2    H9E      HAL2     0.900000E-01   1.00800           0   0.00000     -0.301140E-02
     15156 MEMB     122      PVCL2    CB10     CTL2    -0.180000       12.0110           0   0.00000     -0.301140E-02
     15157 MEMB     122      PVCL2    H10D     HAL2     0.900000E-01   1.00800           0   0.00000     -0.301140E-02
     15158 MEMB     122      PVCL2    H10E     HAL2     0.900000E-01   1.00800           0   0.00000     -0.301140E-02
     15159 MEMB     122      PVCL2    CB11     CTL2    -0.180000       12.0110           0   0.00000     -0.301140E-02
     15160 MEMB     122      PVCL2    H11D     HAL2     0.900000E-01   1.00800           0   0.00000     -0.301140E-02
     15161 MEMB     122      PVCL2    H11E     HAL2     0.900000E-01   1.00800           0   0.00000     -0.301140E-02
     15162 MEMB     122      PVCL2    CB12     CTL2    -0.180000       12.0110           0   0.00000     -0.301140E-02
     15163 MEMB     122      PVCL2    H12D     HAL2     0.900000E-01   1.00800           0   0.00000     -0.301140E-02
     15164 MEMB     122      PVCL2    H12E     HAL2     0.900000E-01   1.00800           0   0.00000     -0.301140E-02
     15165 MEMB     122      PVCL2    CB13     CTL2    -0.180000       12.0110           0   0.00000     -0.301140E-02
     15166 MEMB     122      PVCL2    H13D     HAL2     0.900000E-01   1.00800           0   0.00000     -0.301140E-02
     15167 MEMB     122      PVCL2    H13E     HAL2     0.900000E-01   1.00800           0   0.00000     -0.301140E-02
     15168 MEMB     122      PVCL2    CB14     CTL2    -0.180000       12.0110           0   0.00000     -0.301140E-02
     15169 MEMB     122      PVCL2    H14D     HAL2     0.900000E-01   1.00800           0   0.00000     -0.301140E-02
     15170 MEMB     122      PVCL2    H14E     HAL2     0.900000E-01   1.00800           0   0.00000     -0.301140E-02
     15171 MEMB     122      PVCL2    CB15     CTL2    -0.180000       12.0110           0   0.00000     -0.301140E-02
     15172 MEMB     122      PVCL2    H15D     HAL2     0.900000E-01   1.00800           0   0.00000     -0.301140E-02
     15173 MEMB     122      PVCL2    H15E     HAL2     0.900000E-01   1.00800           0   0.00000     -0.301140E-02
     15174 MEMB     122      PVCL2    CB16     CTL3    -0.270000       12.0110           0   0.00000     -0.301140E-02
     15175 MEMB     122      PVCL2    H16D     HAL3     0.900000E-01   1.00800           0   0.00000     -0.301140E-02
     15176 MEMB     122      PVCL2    H16E     HAL3     0.900000E-01   1.00800           0   0.00000     -0.301140E-02
     15177 MEMB     122      PVCL2    H16F     HAL3     0.900000E-01   1.00800           0   0.00000     -0.301140E-02
     15178 MEMB     122      PVCL2    CC3      CTL2    -0.180000       12.0110           0   0.00000     -0.301140E-02
     15179 MEMB     122      PVCL2    H3R      HAL2     0.900000E-01   1.00800           0   0.00000     -0.301140E-02
     15180 MEMB     122      PVCL2    H3S      HAL2     0.900000E-01   1.00800           0   0.00000     -0.301140E-02
     15181 MEMB     122      PVCL2    CC4      CTL2    -0.180000       12.0110           0   0.00000     -0.301140E-02
     15182 MEMB     122      PVCL2    H4R      HAL2     0.900000E-01   1.00800           0   0.00000     -0.301140E-02
     15183 MEMB     122      PVCL2    H4S      HAL2     0.900000E-01   1.00800           0   0.00000     -0.301140E-02
     15184 MEMB     122      PVCL2    CC5      CTL2    -0.180000       12.0110           0   0.00000     -0.301140E-02
     15185 MEMB     122      PVCL2    H5R      HAL2     0.900000E-01   1.00800           0   0.00000     -0.301140E-02
     15186 MEMB     122      PVCL2    H5S      HAL2     0.900000E-01   1.00800           0   0.00000     -0.301140E-02
     15187 MEMB     122      PVCL2    CC6      CTL2    -0.180000       12.0110           0   0.00000     -0.301140E-02
     15188 MEMB     122      PVCL2    H6R      HAL2     0.900000E-01   1.00800           0   0.00000     -0.301140E-02
     15189 MEMB     122      PVCL2    H6S      HAL2     0.900000E-01   1.00800           0   0.00000     -0.301140E-02
     15190 MEMB     122      PVCL2    CC7      CTL2    -0.180000       12.0110           0   0.00000     -0.301140E-02
     15191 MEMB     122      PVCL2    H7R      HAL2     0.900000E-01   1.00800           0   0.00000     -0.301140E-02
     15192 MEMB     122      PVCL2    H7S      HAL2     0.900000E-01   1.00800           0   0.00000     -0.301140E-02
     15193 MEMB     122      PVCL2    CC8      CTL2    -0.180000       12.0110           0   0.00000     -0.301140E-02
     15194 MEMB     122      PVCL2    H8R      HAL2     0.900000E-01   1.00800           0   0.00000     -0.301140E-02
     15195 MEMB     122      PVCL2    H8S      HAL2     0.900000E-01   1.00800           0   0.00000     -0.301140E-02
     15196 MEMB     122      PVCL2    CC9      CTL2    -0.180000       12.0110           0   0.00000     -0.301140E-02
     15197 MEMB     122      PVCL2    H9R      HAL2     0.900000E-01   1.00800           0   0.00000     -0.301140E-02
     15198 MEMB     122      PVCL2    H9S      HAL2     0.900000E-01   1.00800           0   0.00000     -0.301140E-02
     15199 MEMB     122      PVCL2    CC10     CTL2    -0.180000       12.0110           0   0.00000     -0.301140E-02
     15200 MEMB     122      PVCL2    H10R     HAL2     0.900000E-01   1.00800           0   0.00000     -0.301140E-02
     15201 MEMB     122      PVCL2    H10S     HAL2     0.900000E-01   1.00800           0   0.00000     -0.301140E-02
     15202 MEMB     122      PVCL2    CC11     CEL1    -0.150000       12.0110           0   0.00000     -0.301140E-02
     15203 MEMB     122      PVCL2    H11R     HEL1     0.150000       1.00800           0   0.00000     -0.301140E-02
     15204 MEMB     122      PVCL2    CC12     CEL1    -0.150000       12.0110           0   0.00000     -0.301140E-02
     15205 MEMB     122      PVCL2    H12R     HEL1     0.150000       1.00800           0   0.00000     -0.301140E-02
     15206 MEMB     122      PVCL2    CC13     CTL2    -0.180000       12.0110           0   0.00000     -0.301140E-02
     15207 MEMB     122      PVCL2    H13R     HAL2     0.900000E-01   1.00800           0   0.00000     -0.301140E-02
     15208 MEMB     122      PVCL2    H13S     HAL2     0.900000E-01   1.00800           0   0.00000     -0.301140E-02
     15209 MEMB     122      PVCL2    CC14     CTL2    -0.180000       12.0110           0   0.00000     -0.301140E-02
     15210 MEMB     122      PVCL2    H14R     HAL2     0.900000E-01   1.00800           0   0.00000     -0.301140E-02
     15211 MEMB     122      PVCL2    H14S     HAL2     0.900000E-01   1.00800           0   0.00000     -0.301140E-02
     15212 MEMB     122      PVCL2    CC15     CTL2    -0.180000       12.0110           0   0.00000     -0.301140E-02
     15213 MEMB     122      PVCL2    H15R     HAL2     0.900000E-01   1.00800           0   0.00000     -0.301140E-02
     15214 MEMB     122      PVCL2    H15S     HAL2     0.900000E-01   1.00800           0   0.00000     -0.301140E-02
     15215 MEMB     122      PVCL2    CC16     CTL2    -0.180000       12.0110           0   0.00000     -0.301140E-02
     15216 MEMB     122      PVCL2    H16R     HAL2     0.900000E-01   1.00800           0   0.00000     -0.301140E-02
     15217 MEMB     122      PVCL2    H16S     HAL2     0.900000E-01   1.00800           0   0.00000     -0.301140E-02
     15218 MEMB     122      PVCL2    CC17     CTL2    -0.180000       12.0110           0   0.00000     -0.301140E-02
     15219 MEMB     122      PVCL2    H17R     HAL2     0.900000E-01   1.00800           0   0.00000     -0.301140E-02
     15220 MEMB     122      PVCL2    H17S     HAL2     0.900000E-01   1.00800           0   0.00000     -0.301140E-02
     15221 MEMB     122      PVCL2    CC18     CTL3    -0.270000       12.0110           0   0.00000     -0.301140E-02
     15222 MEMB     122      PVCL2    H18R     HAL3     0.900000E-01   1.00800           0   0.00000     -0.301140E-02
     15223 MEMB     122      PVCL2    H18S     HAL3     0.900000E-01   1.00800           0   0.00000     -0.301140E-02
     15224 MEMB     122      PVCL2    H18T     HAL3     0.900000E-01   1.00800           0   0.00000     -0.301140E-02
     15225 MEMB     122      PVCL2    CD3      CTL2    -0.180000       12.0110           0   0.00000     -0.301140E-02
     15226 MEMB     122      PVCL2    H3X      HAL2     0.900000E-01   1.00800           0   0.00000     -0.301140E-02
     15227 MEMB     122      PVCL2    H3Y      HAL2     0.900000E-01   1.00800           0   0.00000     -0.301140E-02
     15228 MEMB     122      PVCL2    CD4      CTL2    -0.180000       12.0110           0   0.00000     -0.301140E-02
     15229 MEMB     122      PVCL2    H4X      HAL2     0.900000E-01   1.00800           0   0.00000     -0.301140E-02
     15230 MEMB     122      PVCL2    H4Y      HAL2     0.900000E-01   1.00800           0   0.00000     -0.301140E-02
     15231 MEMB     122      PVCL2    CD5      CTL2    -0.180000       12.0110           0   0.00000     -0.301140E-02
     15232 MEMB     122      PVCL2    H5X      HAL2     0.900000E-01   1.00800           0   0.00000     -0.301140E-02
     15233 MEMB     122      PVCL2    H5Y      HAL2     0.900000E-01   1.00800           0   0.00000     -0.301140E-02
     15234 MEMB     122      PVCL2    CD6      CTL2    -0.180000       12.0110           0   0.00000     -0.301140E-02
     15235 MEMB     122      PVCL2    H6X      HAL2     0.900000E-01   1.00800           0   0.00000     -0.301140E-02
     15236 MEMB     122      PVCL2    H6Y      HAL2     0.900000E-01   1.00800           0   0.00000     -0.301140E-02
     15237 MEMB     122      PVCL2    CD7      CTL2    -0.180000       12.0110           0   0.00000     -0.301140E-02
     15238 MEMB     122      PVCL2    H7X      HAL2     0.900000E-01   1.00800           0   0.00000     -0.301140E-02
     15239 MEMB     122      PVCL2    H7Y      HAL2     0.900000E-01   1.00800           0   0.00000     -0.301140E-02
     15240 MEMB     122      PVCL2    CD8      CTL2    -0.180000       12.0110           0   0.00000     -0.301140E-02
     15241 MEMB     122      PVCL2    H8X      HAL2     0.900000E-01   1.00800           0   0.00000     -0.301140E-02
     15242 MEMB     122      PVCL2    H8Y      HAL2     0.900000E-01   1.00800           0   0.00000     -0.301140E-02
     15243 MEMB     122      PVCL2    CD9      CTL2    -0.180000       12.0110           0   0.00000     -0.301140E-02
     15244 MEMB     122      PVCL2    H9X      HAL2     0.900000E-01   1.00800           0   0.00000     -0.301140E-02
     15245 MEMB     122      PVCL2    H9Y      HAL2     0.900000E-01   1.00800           0   0.00000     -0.301140E-02
     15246 MEMB     122      PVCL2    CD10     CTL2    -0.180000       12.0110           0   0.00000     -0.301140E-02
     15247 MEMB     122      PVCL2    H10X     HAL2     0.900000E-01   1.00800           0   0.00000     -0.301140E-02
     15248 MEMB     122      PVCL2    H10Y     HAL2     0.900000E-01   1.00800           0   0.00000     -0.301140E-02
     15249 MEMB     122      PVCL2    CD11     CTL2    -0.180000       12.0110           0   0.00000     -0.301140E-02
     15250 MEMB     122      PVCL2    H11X     HAL2     0.900000E-01   1.00800           0   0.00000     -0.301140E-02
     15251 MEMB     122      PVCL2    H11Y     HAL2     0.900000E-01   1.00800           0   0.00000     -0.301140E-02
     15252 MEMB     122      PVCL2    CD12     CTL2    -0.180000       12.0110           0   0.00000     -0.301140E-02
     15253 MEMB     122      PVCL2    H12X     HAL2     0.900000E-01   1.00800           0   0.00000     -0.301140E-02
     15254 MEMB     122      PVCL2    H12Y     HAL2     0.900000E-01   1.00800           0   0.00000     -0.301140E-02
     15255 MEMB     122      PVCL2    CD13     CTL2    -0.180000       12.0110           0   0.00000     -0.301140E-02
     15256 MEMB     122      PVCL2    H13X     HAL2     0.900000E-01   1.00800           0   0.00000     -0.301140E-02
     15257 MEMB     122      PVCL2    H13Y     HAL2     0.900000E-01   1.00800           0   0.00000     -0.301140E-02
     15258 MEMB     122      PVCL2    CD14     CTL2    -0.180000       12.0110           0   0.00000     -0.301140E-02
     15259 MEMB     122      PVCL2    H14X     HAL2     0.900000E-01   1.00800           0   0.00000     -0.301140E-02
     15260 MEMB     122      PVCL2    H14Y     HAL2     0.900000E-01   1.00800           0   0.00000     -0.301140E-02
     15261 MEMB     122      PVCL2    CD15     CTL2    -0.180000       12.0110           0   0.00000     -0.301140E-02
     15262 MEMB     122      PVCL2    H15X     HAL2     0.900000E-01   1.00800           0   0.00000     -0.301140E-02
     15263 MEMB     122      PVCL2    H15Y     HAL2     0.900000E-01   1.00800           0   0.00000     -0.301140E-02
     15264 MEMB     122      PVCL2    CD16     CTL3    -0.270000       12.0110           0   0.00000     -0.301140E-02
     15265 MEMB     122      PVCL2    H16X     HAL3     0.900000E-01   1.00800           0   0.00000     -0.301140E-02
     15266 MEMB     122      PVCL2    H16Y     HAL3     0.900000E-01   1.00800           0   0.00000     -0.301140E-02
     15267 MEMB     122      PVCL2    H16Z     HAL3     0.900000E-01   1.00800           0   0.00000     -0.301140E-02
     15268 MEMB     123      PMPE     N        NH3L    -0.300000       14.0070           0   0.00000     -0.301140E-02
     15269 MEMB     123      PMPE     HN1      HCL      0.330000       1.00800           0   0.00000     -0.301140E-02
     15270 MEMB     123      PMPE     HN2      HCL      0.330000       1.00800           0   0.00000     -0.301140E-02
     15271 MEMB     123      PMPE     HN3      HCL      0.330000       1.00800           0   0.00000     -0.301140E-02
     15272 MEMB     123      PMPE     C12      CTL2     0.130000       12.0110           0   0.00000     -0.301140E-02
     15273 MEMB     123      PMPE     H12A     HAL2     0.900000E-01   1.00800           0   0.00000     -0.301140E-02
     15274 MEMB     123      PMPE     H12B     HAL2     0.900000E-01   1.00800           0   0.00000     -0.301140E-02
     15275 MEMB     123      PMPE     C11      CTL2    -0.800000E-01   12.0110           0   0.00000     -0.301140E-02
     15276 MEMB     123      PMPE     H11A     HAL2     0.900000E-01   1.00800           0   0.00000     -0.301140E-02
     15277 MEMB     123      PMPE     H11B     HAL2     0.900000E-01   1.00800           0   0.00000     -0.301140E-02
     15278 MEMB     123      PMPE     P        PL        1.50000       30.9740           0   0.00000     -0.301140E-02
     15279 MEMB     123      PMPE     O13      O2L     -0.780000       15.9994           0   0.00000     -0.301140E-02
     15280 MEMB     123      PMPE     O14      O2L     -0.780000       15.9994           0   0.00000     -0.301140E-02
     15281 MEMB     123      PMPE     O11      OSLP    -0.570000       15.9994           0   0.00000     -0.301140E-02
     15282 MEMB     123      PMPE     O12      OSLP    -0.570000       15.9994           0   0.00000     -0.301140E-02
     15283 MEMB     123      PMPE     C1       CTL2    -0.800000E-01   12.0110           0   0.00000     -0.301140E-02
     15284 MEMB     123      PMPE     HA       HAL2     0.900000E-01   1.00800           0   0.00000     -0.301140E-02
     15285 MEMB     123      PMPE     HB       HAL2     0.900000E-01   1.00800           0   0.00000     -0.301140E-02
     15286 MEMB     123      PMPE     C2       CTL1     0.170000       12.0110           0   0.00000     -0.301140E-02
     15287 MEMB     123      PMPE     HS       HAL1     0.900000E-01   1.00800           0   0.00000     -0.301140E-02
     15288 MEMB     123      PMPE     O21      OSL     -0.490000       15.9994           0   0.00000     -0.301140E-02
     15289 MEMB     123      PMPE     C21      CL       0.900000       12.0110           0   0.00000     -0.301140E-02
     15290 MEMB     123      PMPE     O22      OBL     -0.630000       15.9994           0   0.00000     -0.301140E-02
     15291 MEMB     123      PMPE     C22      CTL2    -0.220000       12.0110           0   0.00000     -0.301140E-02
     15292 MEMB     123      PMPE     H2R      HAL2     0.900000E-01   1.00800           0   0.00000     -0.301140E-02
     15293 MEMB     123      PMPE     H2S      HAL2     0.900000E-01   1.00800           0   0.00000     -0.301140E-02
     15294 MEMB     123      PMPE     C3       CTL2     0.800000E-01   12.0110           0   0.00000     -0.301140E-02
     15295 MEMB     123      PMPE     HX       HAL2     0.900000E-01   1.00800           0   0.00000     -0.301140E-02
     15296 MEMB     123      PMPE     HY       HAL2     0.900000E-01   1.00800           0   0.00000     -0.301140E-02
     15297 MEMB     123      PMPE     O31      OSL     -0.490000       15.9994           0   0.00000     -0.301140E-02
     15298 MEMB     123      PMPE     C31      CL       0.900000       12.0110           0   0.00000     -0.301140E-02
     15299 MEMB     123      PMPE     O32      OBL     -0.630000       15.9994           0   0.00000     -0.301140E-02
     15300 MEMB     123      PMPE     C32      CTL2    -0.220000       12.0110           0   0.00000     -0.301140E-02
     15301 MEMB     123      PMPE     H2X      HAL2     0.900000E-01   1.00800           0   0.00000     -0.301140E-02
     15302 MEMB     123      PMPE     H2Y      HAL2     0.900000E-01   1.00800           0   0.00000     -0.301140E-02
     15303 MEMB     123      PMPE     C23      CTL2    -0.180000       12.0110           0   0.00000     -0.301140E-02
     15304 MEMB     123      PMPE     H3R      HAL2     0.900000E-01   1.00800           0   0.00000     -0.301140E-02
     15305 MEMB     123      PMPE     H3S      HAL2     0.900000E-01   1.00800           0   0.00000     -0.301140E-02
     15306 MEMB     123      PMPE     C24      CTL2    -0.180000       12.0110           0   0.00000     -0.301140E-02
     15307 MEMB     123      PMPE     H4R      HAL2     0.900000E-01   1.00800           0   0.00000     -0.301140E-02
     15308 MEMB     123      PMPE     H4S      HAL2     0.900000E-01   1.00800           0   0.00000     -0.301140E-02
     15309 MEMB     123      PMPE     C25      CTL2    -0.180000       12.0110           0   0.00000     -0.301140E-02
     15310 MEMB     123      PMPE     H5R      HAL2     0.900000E-01   1.00800           0   0.00000     -0.301140E-02
     15311 MEMB     123      PMPE     H5S      HAL2     0.900000E-01   1.00800           0   0.00000     -0.301140E-02
     15312 MEMB     123      PMPE     C26      CTL2    -0.180000       12.0110           0   0.00000     -0.301140E-02
     15313 MEMB     123      PMPE     H6R      HAL2     0.900000E-01   1.00800           0   0.00000     -0.301140E-02
     15314 MEMB     123      PMPE     H6S      HAL2     0.900000E-01   1.00800           0   0.00000     -0.301140E-02
     15315 MEMB     123      PMPE     C27      CTL2    -0.180000       12.0110           0   0.00000     -0.301140E-02
     15316 MEMB     123      PMPE     H7R      HAL2     0.900000E-01   1.00800           0   0.00000     -0.301140E-02
     15317 MEMB     123      PMPE     H7S      HAL2     0.900000E-01   1.00800           0   0.00000     -0.301140E-02
     15318 MEMB     123      PMPE     C28      CTL2    -0.180000       12.0110           0   0.00000     -0.301140E-02
     15319 MEMB     123      PMPE     H8R      HAL2     0.900000E-01   1.00800           0   0.00000     -0.301140E-02
     15320 MEMB     123      PMPE     H8S      HAL2     0.900000E-01   1.00800           0   0.00000     -0.301140E-02
     15321 MEMB     123      PMPE     C29      CG3RC1  -0.900000E-01   12.0110           0   0.00000     -0.301140E-02
     15322 MEMB     123      PMPE     H9R      HGA1     0.900000E-01   1.00800           0   0.00000     -0.301140E-02
     15323 MEMB     123      PMPE     C217     CG3C31  -0.180000       12.0110           0   0.00000     -0.301140E-02
     15324 MEMB     123      PMPE     H17R     HGA2     0.900000E-01   1.00800           0   0.00000     -0.301140E-02
     15325 MEMB     123      PMPE     H17S     HGA2     0.900000E-01   1.00800           0   0.00000     -0.301140E-02
     15326 MEMB     123      PMPE     C210     CG3RC1  -0.900000E-01   12.0110           0   0.00000     -0.301140E-02
     15327 MEMB     123      PMPE     H10R     HGA1     0.900000E-01   1.00800           0   0.00000     -0.301140E-02
     15328 MEMB     123      PMPE     C211     CTL2    -0.180000       12.0110           0   0.00000     -0.301140E-02
     15329 MEMB     123      PMPE     H11R     HAL2     0.900000E-01   1.00800           0   0.00000     -0.301140E-02
     15330 MEMB     123      PMPE     H11S     HAL2     0.900000E-01   1.00800           0   0.00000     -0.301140E-02
     15331 MEMB     123      PMPE     C212     CTL2    -0.180000       12.0110           0   0.00000     -0.301140E-02
     15332 MEMB     123      PMPE     H12R     HAL2     0.900000E-01   1.00800           0   0.00000     -0.301140E-02
     15333 MEMB     123      PMPE     H12S     HAL2     0.900000E-01   1.00800           0   0.00000     -0.301140E-02
     15334 MEMB     123      PMPE     C213     CTL2    -0.180000       12.0110           0   0.00000     -0.301140E-02
     15335 MEMB     123      PMPE     H13R     HAL2     0.900000E-01   1.00800           0   0.00000     -0.301140E-02
     15336 MEMB     123      PMPE     H13S     HAL2     0.900000E-01   1.00800           0   0.00000     -0.301140E-02
     15337 MEMB     123      PMPE     C214     CTL2    -0.180000       12.0110           0   0.00000     -0.301140E-02
     15338 MEMB     123      PMPE     H14R     HAL2     0.900000E-01   1.00800           0   0.00000     -0.301140E-02
     15339 MEMB     123      PMPE     H14S     HAL2     0.900000E-01   1.00800           0   0.00000     -0.301140E-02
     15340 MEMB     123      PMPE     C215     CTL2    -0.180000       12.0110           0   0.00000     -0.301140E-02
     15341 MEMB     123      PMPE     H15R     HAL2     0.900000E-01   1.00800           0   0.00000     -0.301140E-02
     15342 MEMB     123      PMPE     H15S     HAL2     0.900000E-01   1.00800           0   0.00000     -0.301140E-02
     15343 MEMB     123      PMPE     C216     CTL3    -0.270000       12.0110           0   0.00000     -0.301140E-02
     15344 MEMB     123      PMPE     H16R     HAL3     0.900000E-01   1.00800           0   0.00000     -0.301140E-02
     15345 MEMB     123      PMPE     H16S     HAL3     0.900000E-01   1.00800           0   0.00000     -0.301140E-02
     15346 MEMB     123      PMPE     H16T     HAL3     0.900000E-01   1.00800           0   0.00000     -0.301140E-02
     15347 MEMB     123      PMPE     C33      CTL2    -0.180000       12.0110           0   0.00000     -0.301140E-02
     15348 MEMB     123      PMPE     H3X      HAL2     0.900000E-01   1.00800           0   0.00000     -0.301140E-02
     15349 MEMB     123      PMPE     H3Y      HAL2     0.900000E-01   1.00800           0   0.00000     -0.301140E-02
     15350 MEMB     123      PMPE     C34      CTL2    -0.180000       12.0110           0   0.00000     -0.301140E-02
     15351 MEMB     123      PMPE     H4X      HAL2     0.900000E-01   1.00800           0   0.00000     -0.301140E-02
     15352 MEMB     123      PMPE     H4Y      HAL2     0.900000E-01   1.00800           0   0.00000     -0.301140E-02
     15353 MEMB     123      PMPE     C35      CTL2    -0.180000       12.0110           0   0.00000     -0.301140E-02
     15354 MEMB     123      PMPE     H5X      HAL2     0.900000E-01   1.00800           0   0.00000     -0.301140E-02
     15355 MEMB     123      PMPE     H5Y      HAL2     0.900000E-01   1.00800           0   0.00000     -0.301140E-02
     15356 MEMB     123      PMPE     C36      CTL2    -0.180000       12.0110           0   0.00000     -0.301140E-02
     15357 MEMB     123      PMPE     H6X      HAL2     0.900000E-01   1.00800           0   0.00000     -0.301140E-02
     15358 MEMB     123      PMPE     H6Y      HAL2     0.900000E-01   1.00800           0   0.00000     -0.301140E-02
     15359 MEMB     123      PMPE     C37      CTL2    -0.180000       12.0110           0   0.00000     -0.301140E-02
     15360 MEMB     123      PMPE     H7X      HAL2     0.900000E-01   1.00800           0   0.00000     -0.301140E-02
     15361 MEMB     123      PMPE     H7Y      HAL2     0.900000E-01   1.00800           0   0.00000     -0.301140E-02
     15362 MEMB     123      PMPE     C38      CTL2    -0.180000       12.0110           0   0.00000     -0.301140E-02
     15363 MEMB     123      PMPE     H8X      HAL2     0.900000E-01   1.00800           0   0.00000     -0.301140E-02
     15364 MEMB     123      PMPE     H8Y      HAL2     0.900000E-01   1.00800           0   0.00000     -0.301140E-02
     15365 MEMB     123      PMPE     C39      CTL2    -0.180000       12.0110           0   0.00000     -0.301140E-02
     15366 MEMB     123      PMPE     H9X      HAL2     0.900000E-01   1.00800           0   0.00000     -0.301140E-02
     15367 MEMB     123      PMPE     H9Y      HAL2     0.900000E-01   1.00800           0   0.00000     -0.301140E-02
     15368 MEMB     123      PMPE     C310     CTL2    -0.180000       12.0110           0   0.00000     -0.301140E-02
     15369 MEMB     123      PMPE     H10X     HAL2     0.900000E-01   1.00800           0   0.00000     -0.301140E-02
     15370 MEMB     123      PMPE     H10Y     HAL2     0.900000E-01   1.00800           0   0.00000     -0.301140E-02
     15371 MEMB     123      PMPE     C311     CTL2    -0.180000       12.0110           0   0.00000     -0.301140E-02
     15372 MEMB     123      PMPE     H11X     HAL2     0.900000E-01   1.00800           0   0.00000     -0.301140E-02
     15373 MEMB     123      PMPE     H11Y     HAL2     0.900000E-01   1.00800           0   0.00000     -0.301140E-02
     15374 MEMB     123      PMPE     C312     CTL2    -0.180000       12.0110           0   0.00000     -0.301140E-02
     15375 MEMB     123      PMPE     H12X     HAL2     0.900000E-01   1.00800           0   0.00000     -0.301140E-02
     15376 MEMB     123      PMPE     H12Y     HAL2     0.900000E-01   1.00800           0   0.00000     -0.301140E-02
     15377 MEMB     123      PMPE     C313     CTL2    -0.180000       12.0110           0   0.00000     -0.301140E-02
     15378 MEMB     123      PMPE     H13X     HAL2     0.900000E-01   1.00800           0   0.00000     -0.301140E-02
     15379 MEMB     123      PMPE     H13Y     HAL2     0.900000E-01   1.00800           0   0.00000     -0.301140E-02
     15380 MEMB     123      PMPE     C314     CTL2    -0.180000       12.0110           0   0.00000     -0.301140E-02
     15381 MEMB     123      PMPE     H14X     HAL2     0.900000E-01   1.00800           0   0.00000     -0.301140E-02
     15382 MEMB     123      PMPE     H14Y     HAL2     0.900000E-01   1.00800           0   0.00000     -0.301140E-02
     15383 MEMB     123      PMPE     C315     CTL2    -0.180000       12.0110           0   0.00000     -0.301140E-02
     15384 MEMB     123      PMPE     H15X     HAL2     0.900000E-01   1.00800           0   0.00000     -0.301140E-02
     15385 MEMB     123      PMPE     H15Y     HAL2     0.900000E-01   1.00800           0   0.00000     -0.301140E-02
     15386 MEMB     123      PMPE     C316     CTL3    -0.270000       12.0110           0   0.00000     -0.301140E-02
     15387 MEMB     123      PMPE     H16X     HAL3     0.900000E-01   1.00800           0   0.00000     -0.301140E-02
     15388 MEMB     123      PMPE     H16Y     HAL3     0.900000E-01   1.00800           0   0.00000     -0.301140E-02
     15389 MEMB     123      PMPE     H16Z     HAL3     0.900000E-01   1.00800           0   0.00000     -0.301140E-02
     15390 MEMB     124      OYPE     N        NH3L    -0.300000       14.0070           0   0.00000     -0.301140E-02
     15391 MEMB     124      OYPE     HN1      HCL      0.330000       1.00800           0   0.00000     -0.301140E-02
     15392 MEMB     124      OYPE     HN2      HCL      0.330000       1.00800           0   0.00000     -0.301140E-02
     15393 MEMB     124      OYPE     HN3      HCL      0.330000       1.00800           0   0.00000     -0.301140E-02
     15394 MEMB     124      OYPE     C12      CTL2     0.130000       12.0110           0   0.00000     -0.301140E-02
     15395 MEMB     124      OYPE     H12A     HAL2     0.900000E-01   1.00800           0   0.00000     -0.301140E-02
     15396 MEMB     124      OYPE     H12B     HAL2     0.900000E-01   1.00800           0   0.00000     -0.301140E-02
     15397 MEMB     124      OYPE     C11      CTL2    -0.800000E-01   12.0110           0   0.00000     -0.301140E-02
     15398 MEMB     124      OYPE     H11A     HAL2     0.900000E-01   1.00800           0   0.00000     -0.301140E-02
     15399 MEMB     124      OYPE     H11B     HAL2     0.900000E-01   1.00800           0   0.00000     -0.301140E-02
     15400 MEMB     124      OYPE     P        PL        1.50000       30.9740           0   0.00000     -0.301140E-02
     15401 MEMB     124      OYPE     O13      O2L     -0.780000       15.9994           0   0.00000     -0.301140E-02
     15402 MEMB     124      OYPE     O14      O2L     -0.780000       15.9994           0   0.00000     -0.301140E-02
     15403 MEMB     124      OYPE     O11      OSLP    -0.570000       15.9994           0   0.00000     -0.301140E-02
     15404 MEMB     124      OYPE     O12      OSLP    -0.570000       15.9994           0   0.00000     -0.301140E-02
     15405 MEMB     124      OYPE     C1       CTL2    -0.800000E-01   12.0110           0   0.00000     -0.301140E-02
     15406 MEMB     124      OYPE     HA       HAL2     0.900000E-01   1.00800           0   0.00000     -0.301140E-02
     15407 MEMB     124      OYPE     HB       HAL2     0.900000E-01   1.00800           0   0.00000     -0.301140E-02
     15408 MEMB     124      OYPE     C2       CTL1     0.170000       12.0110           0   0.00000     -0.301140E-02
     15409 MEMB     124      OYPE     HS       HAL1     0.900000E-01   1.00800           0   0.00000     -0.301140E-02
     15410 MEMB     124      OYPE     O21      OSL     -0.490000       15.9994           0   0.00000     -0.301140E-02
     15411 MEMB     124      OYPE     C21      CL       0.900000       12.0110           0   0.00000     -0.301140E-02
     15412 MEMB     124      OYPE     O22      OBL     -0.630000       15.9994           0   0.00000     -0.301140E-02
     15413 MEMB     124      OYPE     C22      CTL2    -0.220000       12.0110           0   0.00000     -0.301140E-02
     15414 MEMB     124      OYPE     H2R      HAL2     0.900000E-01   1.00800           0   0.00000     -0.301140E-02
     15415 MEMB     124      OYPE     H2S      HAL2     0.900000E-01   1.00800           0   0.00000     -0.301140E-02
     15416 MEMB     124      OYPE     C3       CTL2     0.800000E-01   12.0110           0   0.00000     -0.301140E-02
     15417 MEMB     124      OYPE     HX       HAL2     0.900000E-01   1.00800           0   0.00000     -0.301140E-02
     15418 MEMB     124      OYPE     HY       HAL2     0.900000E-01   1.00800           0   0.00000     -0.301140E-02
     15419 MEMB     124      OYPE     O31      OSL     -0.490000       15.9994           0   0.00000     -0.301140E-02
     15420 MEMB     124      OYPE     C31      CL       0.900000       12.0110           0   0.00000     -0.301140E-02
     15421 MEMB     124      OYPE     O32      OBL     -0.630000       15.9994           0   0.00000     -0.301140E-02
     15422 MEMB     124      OYPE     C32      CTL2    -0.220000       12.0110           0   0.00000     -0.301140E-02
     15423 MEMB     124      OYPE     H2X      HAL2     0.900000E-01   1.00800           0   0.00000     -0.301140E-02
     15424 MEMB     124      OYPE     H2Y      HAL2     0.900000E-01   1.00800           0   0.00000     -0.301140E-02
     15425 MEMB     124      OYPE     C23      CTL2    -0.180000       12.0110           0   0.00000     -0.301140E-02
     15426 MEMB     124      OYPE     H3R      HAL2     0.900000E-01   1.00800           0   0.00000     -0.301140E-02
     15427 MEMB     124      OYPE     H3S      HAL2     0.900000E-01   1.00800           0   0.00000     -0.301140E-02
     15428 MEMB     124      OYPE     C24      CTL2    -0.180000       12.0110           0   0.00000     -0.301140E-02
     15429 MEMB     124      OYPE     H4R      HAL2     0.900000E-01   1.00800           0   0.00000     -0.301140E-02
     15430 MEMB     124      OYPE     H4S      HAL2     0.900000E-01   1.00800           0   0.00000     -0.301140E-02
     15431 MEMB     124      OYPE     C25      CTL2    -0.180000       12.0110           0   0.00000     -0.301140E-02
     15432 MEMB     124      OYPE     H5R      HAL2     0.900000E-01   1.00800           0   0.00000     -0.301140E-02
     15433 MEMB     124      OYPE     H5S      HAL2     0.900000E-01   1.00800           0   0.00000     -0.301140E-02
     15434 MEMB     124      OYPE     C26      CTL2    -0.180000       12.0110           0   0.00000     -0.301140E-02
     15435 MEMB     124      OYPE     H6R      HAL2     0.900000E-01   1.00800           0   0.00000     -0.301140E-02
     15436 MEMB     124      OYPE     H6S      HAL2     0.900000E-01   1.00800           0   0.00000     -0.301140E-02
     15437 MEMB     124      OYPE     C27      CTL2    -0.180000       12.0110           0   0.00000     -0.301140E-02
     15438 MEMB     124      OYPE     H7R      HAL2     0.900000E-01   1.00800           0   0.00000     -0.301140E-02
     15439 MEMB     124      OYPE     H7S      HAL2     0.900000E-01   1.00800           0   0.00000     -0.301140E-02
     15440 MEMB     124      OYPE     C28      CTL2    -0.180000       12.0110           0   0.00000     -0.301140E-02
     15441 MEMB     124      OYPE     H8R      HAL2     0.900000E-01   1.00800           0   0.00000     -0.301140E-02
     15442 MEMB     124      OYPE     H8S      HAL2     0.900000E-01   1.00800           0   0.00000     -0.301140E-02
     15443 MEMB     124      OYPE     C29      CEL1    -0.150000       12.0110           0   0.00000     -0.301140E-02
     15444 MEMB     124      OYPE     H9R      HEL1     0.150000       1.00800           0   0.00000     -0.301140E-02
     15445 MEMB     124      OYPE     C210     CEL1    -0.150000       12.0110           0   0.00000     -0.301140E-02
     15446 MEMB     124      OYPE     H10R     HEL1     0.150000       1.00800           0   0.00000     -0.301140E-02
     15447 MEMB     124      OYPE     C211     CTL2    -0.180000       12.0110           0   0.00000     -0.301140E-02
     15448 MEMB     124      OYPE     H11R     HAL2     0.900000E-01   1.00800           0   0.00000     -0.301140E-02
     15449 MEMB     124      OYPE     H11S     HAL2     0.900000E-01   1.00800           0   0.00000     -0.301140E-02
     15450 MEMB     124      OYPE     C212     CTL2    -0.180000       12.0110           0   0.00000     -0.301140E-02
     15451 MEMB     124      OYPE     H12R     HAL2     0.900000E-01   1.00800           0   0.00000     -0.301140E-02
     15452 MEMB     124      OYPE     H12S     HAL2     0.900000E-01   1.00800           0   0.00000     -0.301140E-02
     15453 MEMB     124      OYPE     C213     CTL2    -0.180000       12.0110           0   0.00000     -0.301140E-02
     15454 MEMB     124      OYPE     H13R     HAL2     0.900000E-01   1.00800           0   0.00000     -0.301140E-02
     15455 MEMB     124      OYPE     H13S     HAL2     0.900000E-01   1.00800           0   0.00000     -0.301140E-02
     15456 MEMB     124      OYPE     C214     CTL2    -0.180000       12.0110           0   0.00000     -0.301140E-02
     15457 MEMB     124      OYPE     H14R     HAL2     0.900000E-01   1.00800           0   0.00000     -0.301140E-02
     15458 MEMB     124      OYPE     H14S     HAL2     0.900000E-01   1.00800           0   0.00000     -0.301140E-02
     15459 MEMB     124      OYPE     C215     CTL2    -0.180000       12.0110           0   0.00000     -0.301140E-02
     15460 MEMB     124      OYPE     H15R     HAL2     0.900000E-01   1.00800           0   0.00000     -0.301140E-02
     15461 MEMB     124      OYPE     H15S     HAL2     0.900000E-01   1.00800           0   0.00000     -0.301140E-02
     15462 MEMB     124      OYPE     C216     CTL3    -0.270000       12.0110           0   0.00000     -0.301140E-02
     15463 MEMB     124      OYPE     H16R     HAL3     0.900000E-01   1.00800           0   0.00000     -0.301140E-02
     15464 MEMB     124      OYPE     H16S     HAL3     0.900000E-01   1.00800           0   0.00000     -0.301140E-02
     15465 MEMB     124      OYPE     H16T     HAL3     0.900000E-01   1.00800           0   0.00000     -0.301140E-02
     15466 MEMB     124      OYPE     C33      CTL2    -0.180000       12.0110           0   0.00000     -0.301140E-02
     15467 MEMB     124      OYPE     H3X      HAL2     0.900000E-01   1.00800           0   0.00000     -0.301140E-02
     15468 MEMB     124      OYPE     H3Y      HAL2     0.900000E-01   1.00800           0   0.00000     -0.301140E-02
     15469 MEMB     124      OYPE     C34      CTL2    -0.180000       12.0110           0   0.00000     -0.301140E-02
     15470 MEMB     124      OYPE     H4X      HAL2     0.900000E-01   1.00800           0   0.00000     -0.301140E-02
     15471 MEMB     124      OYPE     H4Y      HAL2     0.900000E-01   1.00800           0   0.00000     -0.301140E-02
     15472 MEMB     124      OYPE     C35      CTL2    -0.180000       12.0110           0   0.00000     -0.301140E-02
     15473 MEMB     124      OYPE     H5X      HAL2     0.900000E-01   1.00800           0   0.00000     -0.301140E-02
     15474 MEMB     124      OYPE     H5Y      HAL2     0.900000E-01   1.00800           0   0.00000     -0.301140E-02
     15475 MEMB     124      OYPE     C36      CTL2    -0.180000       12.0110           0   0.00000     -0.301140E-02
     15476 MEMB     124      OYPE     H6X      HAL2     0.900000E-01   1.00800           0   0.00000     -0.301140E-02
     15477 MEMB     124      OYPE     H6Y      HAL2     0.900000E-01   1.00800           0   0.00000     -0.301140E-02
     15478 MEMB     124      OYPE     C37      CTL2    -0.180000       12.0110           0   0.00000     -0.301140E-02
     15479 MEMB     124      OYPE     H7X      HAL2     0.900000E-01   1.00800           0   0.00000     -0.301140E-02
     15480 MEMB     124      OYPE     H7Y      HAL2     0.900000E-01   1.00800           0   0.00000     -0.301140E-02
     15481 MEMB     124      OYPE     C38      CTL2    -0.180000       12.0110           0   0.00000     -0.301140E-02
     15482 MEMB     124      OYPE     H8X      HAL2     0.900000E-01   1.00800           0   0.00000     -0.301140E-02
     15483 MEMB     124      OYPE     H8Y      HAL2     0.900000E-01   1.00800           0   0.00000     -0.301140E-02
     15484 MEMB     124      OYPE     C39      CEL1    -0.150000       12.0110           0   0.00000     -0.301140E-02
     15485 MEMB     124      OYPE     H9X      HEL1     0.150000       1.00800           0   0.00000     -0.301140E-02
     15486 MEMB     124      OYPE     C310     CEL1    -0.150000       12.0110           0   0.00000     -0.301140E-02
     15487 MEMB     124      OYPE     H10X     HEL1     0.150000       1.00800           0   0.00000     -0.301140E-02
     15488 MEMB     124      OYPE     C311     CTL2    -0.180000       12.0110           0   0.00000     -0.301140E-02
     15489 MEMB     124      OYPE     H11X     HAL2     0.900000E-01   1.00800           0   0.00000     -0.301140E-02
     15490 MEMB     124      OYPE     H11Y     HAL2     0.900000E-01   1.00800           0   0.00000     -0.301140E-02
     15491 MEMB     124      OYPE     C312     CTL2    -0.180000       12.0110           0   0.00000     -0.301140E-02
     15492 MEMB     124      OYPE     H12X     HAL2     0.900000E-01   1.00800           0   0.00000     -0.301140E-02
     15493 MEMB     124      OYPE     H12Y     HAL2     0.900000E-01   1.00800           0   0.00000     -0.301140E-02
     15494 MEMB     124      OYPE     C313     CTL2    -0.180000       12.0110           0   0.00000     -0.301140E-02
     15495 MEMB     124      OYPE     H13X     HAL2     0.900000E-01   1.00800           0   0.00000     -0.301140E-02
     15496 MEMB     124      OYPE     H13Y     HAL2     0.900000E-01   1.00800           0   0.00000     -0.301140E-02
     15497 MEMB     124      OYPE     C314     CTL2    -0.180000       12.0110           0   0.00000     -0.301140E-02
     15498 MEMB     124      OYPE     H14X     HAL2     0.900000E-01   1.00800           0   0.00000     -0.301140E-02
     15499 MEMB     124      OYPE     H14Y     HAL2     0.900000E-01   1.00800           0   0.00000     -0.301140E-02
     15500 MEMB     124      OYPE     C315     CTL2    -0.180000       12.0110           0   0.00000     -0.301140E-02
     15501 MEMB     124      OYPE     H15X     HAL2     0.900000E-01   1.00800           0   0.00000     -0.301140E-02
     15502 MEMB     124      OYPE     H15Y     HAL2     0.900000E-01   1.00800           0   0.00000     -0.301140E-02
     15503 MEMB     124      OYPE     C316     CTL2    -0.180000       12.0110           0   0.00000     -0.301140E-02
     15504 MEMB     124      OYPE     H16X     HAL2     0.900000E-01   1.00800           0   0.00000     -0.301140E-02
     15505 MEMB     124      OYPE     H16Y     HAL2     0.900000E-01   1.00800           0   0.00000     -0.301140E-02
     15506 MEMB     124      OYPE     C317     CTL2    -0.180000       12.0110           0   0.00000     -0.301140E-02
     15507 MEMB     124      OYPE     H17X     HAL2     0.900000E-01   1.00800           0   0.00000     -0.301140E-02
     15508 MEMB     124      OYPE     H17Y     HAL2     0.900000E-01   1.00800           0   0.00000     -0.301140E-02
     15509 MEMB     124      OYPE     C318     CTL3    -0.270000       12.0110           0   0.00000     -0.301140E-02
     15510 MEMB     124      OYPE     H18X     HAL3     0.900000E-01   1.00800           0   0.00000     -0.301140E-02
     15511 MEMB     124      OYPE     H18Y     HAL3     0.900000E-01   1.00800           0   0.00000     -0.301140E-02
     15512 MEMB     124      OYPE     H18Z     HAL3     0.900000E-01   1.00800           0   0.00000     -0.301140E-02
     15513 MEMB     125      PMPE     N        NH3L    -0.300000       14.0070           0   0.00000     -0.301140E-02
     15514 MEMB     125      PMPE     HN1      HCL      0.330000       1.00800           0   0.00000     -0.301140E-02
     15515 MEMB     125      PMPE     HN2      HCL      0.330000       1.00800           0   0.00000     -0.301140E-02
     15516 MEMB     125      PMPE     HN3      HCL      0.330000       1.00800           0   0.00000     -0.301140E-02
     15517 MEMB     125      PMPE     C12      CTL2     0.130000       12.0110           0   0.00000     -0.301140E-02
     15518 MEMB     125      PMPE     H12A     HAL2     0.900000E-01   1.00800           0   0.00000     -0.301140E-02
     15519 MEMB     125      PMPE     H12B     HAL2     0.900000E-01   1.00800           0   0.00000     -0.301140E-02
     15520 MEMB     125      PMPE     C11      CTL2    -0.800000E-01   12.0110           0   0.00000     -0.301140E-02
     15521 MEMB     125      PMPE     H11A     HAL2     0.900000E-01   1.00800           0   0.00000     -0.301140E-02
     15522 MEMB     125      PMPE     H11B     HAL2     0.900000E-01   1.00800           0   0.00000     -0.301140E-02
     15523 MEMB     125      PMPE     P        PL        1.50000       30.9740           0   0.00000     -0.301140E-02
     15524 MEMB     125      PMPE     O13      O2L     -0.780000       15.9994           0   0.00000     -0.301140E-02
     15525 MEMB     125      PMPE     O14      O2L     -0.780000       15.9994           0   0.00000     -0.301140E-02
     15526 MEMB     125      PMPE     O11      OSLP    -0.570000       15.9994           0   0.00000     -0.301140E-02
     15527 MEMB     125      PMPE     O12      OSLP    -0.570000       15.9994           0   0.00000     -0.301140E-02
     15528 MEMB     125      PMPE     C1       CTL2    -0.800000E-01   12.0110           0   0.00000     -0.301140E-02
     15529 MEMB     125      PMPE     HA       HAL2     0.900000E-01   1.00800           0   0.00000     -0.301140E-02
     15530 MEMB     125      PMPE     HB       HAL2     0.900000E-01   1.00800           0   0.00000     -0.301140E-02
     15531 MEMB     125      PMPE     C2       CTL1     0.170000       12.0110           0   0.00000     -0.301140E-02
     15532 MEMB     125      PMPE     HS       HAL1     0.900000E-01   1.00800           0   0.00000     -0.301140E-02
     15533 MEMB     125      PMPE     O21      OSL     -0.490000       15.9994           0   0.00000     -0.301140E-02
     15534 MEMB     125      PMPE     C21      CL       0.900000       12.0110           0   0.00000     -0.301140E-02
     15535 MEMB     125      PMPE     O22      OBL     -0.630000       15.9994           0   0.00000     -0.301140E-02
     15536 MEMB     125      PMPE     C22      CTL2    -0.220000       12.0110           0   0.00000     -0.301140E-02
     15537 MEMB     125      PMPE     H2R      HAL2     0.900000E-01   1.00800           0   0.00000     -0.301140E-02
     15538 MEMB     125      PMPE     H2S      HAL2     0.900000E-01   1.00800           0   0.00000     -0.301140E-02
     15539 MEMB     125      PMPE     C3       CTL2     0.800000E-01   12.0110           0   0.00000     -0.301140E-02
     15540 MEMB     125      PMPE     HX       HAL2     0.900000E-01   1.00800           0   0.00000     -0.301140E-02
     15541 MEMB     125      PMPE     HY       HAL2     0.900000E-01   1.00800           0   0.00000     -0.301140E-02
     15542 MEMB     125      PMPE     O31      OSL     -0.490000       15.9994           0   0.00000     -0.301140E-02
     15543 MEMB     125      PMPE     C31      CL       0.900000       12.0110           0   0.00000     -0.301140E-02
     15544 MEMB     125      PMPE     O32      OBL     -0.630000       15.9994           0   0.00000     -0.301140E-02
     15545 MEMB     125      PMPE     C32      CTL2    -0.220000       12.0110           0   0.00000     -0.301140E-02
     15546 MEMB     125      PMPE     H2X      HAL2     0.900000E-01   1.00800           0   0.00000     -0.301140E-02
     15547 MEMB     125      PMPE     H2Y      HAL2     0.900000E-01   1.00800           0   0.00000     -0.301140E-02
     15548 MEMB     125      PMPE     C23      CTL2    -0.180000       12.0110           0   0.00000     -0.301140E-02
     15549 MEMB     125      PMPE     H3R      HAL2     0.900000E-01   1.00800           0   0.00000     -0.301140E-02
     15550 MEMB     125      PMPE     H3S      HAL2     0.900000E-01   1.00800           0   0.00000     -0.301140E-02
     15551 MEMB     125      PMPE     C24      CTL2    -0.180000       12.0110           0   0.00000     -0.301140E-02
     15552 MEMB     125      PMPE     H4R      HAL2     0.900000E-01   1.00800           0   0.00000     -0.301140E-02
     15553 MEMB     125      PMPE     H4S      HAL2     0.900000E-01   1.00800           0   0.00000     -0.301140E-02
     15554 MEMB     125      PMPE     C25      CTL2    -0.180000       12.0110           0   0.00000     -0.301140E-02
     15555 MEMB     125      PMPE     H5R      HAL2     0.900000E-01   1.00800           0   0.00000     -0.301140E-02
     15556 MEMB     125      PMPE     H5S      HAL2     0.900000E-01   1.00800           0   0.00000     -0.301140E-02
     15557 MEMB     125      PMPE     C26      CTL2    -0.180000       12.0110           0   0.00000     -0.301140E-02
     15558 MEMB     125      PMPE     H6R      HAL2     0.900000E-01   1.00800           0   0.00000     -0.301140E-02
     15559 MEMB     125      PMPE     H6S      HAL2     0.900000E-01   1.00800           0   0.00000     -0.301140E-02
     15560 MEMB     125      PMPE     C27      CTL2    -0.180000       12.0110           0   0.00000     -0.301140E-02
     15561 MEMB     125      PMPE     H7R      HAL2     0.900000E-01   1.00800           0   0.00000     -0.301140E-02
     15562 MEMB     125      PMPE     H7S      HAL2     0.900000E-01   1.00800           0   0.00000     -0.301140E-02
     15563 MEMB     125      PMPE     C28      CTL2    -0.180000       12.0110           0   0.00000     -0.301140E-02
     15564 MEMB     125      PMPE     H8R      HAL2     0.900000E-01   1.00800           0   0.00000     -0.301140E-02
     15565 MEMB     125      PMPE     H8S      HAL2     0.900000E-01   1.00800           0   0.00000     -0.301140E-02
     15566 MEMB     125      PMPE     C29      CG3RC1  -0.900000E-01   12.0110           0   0.00000     -0.301140E-02
     15567 MEMB     125      PMPE     H9R      HGA1     0.900000E-01   1.00800           0   0.00000     -0.301140E-02
     15568 MEMB     125      PMPE     C217     CG3C31  -0.180000       12.0110           0   0.00000     -0.301140E-02
     15569 MEMB     125      PMPE     H17R     HGA2     0.900000E-01   1.00800           0   0.00000     -0.301140E-02
     15570 MEMB     125      PMPE     H17S     HGA2     0.900000E-01   1.00800           0   0.00000     -0.301140E-02
     15571 MEMB     125      PMPE     C210     CG3RC1  -0.900000E-01   12.0110           0   0.00000     -0.301140E-02
     15572 MEMB     125      PMPE     H10R     HGA1     0.900000E-01   1.00800           0   0.00000     -0.301140E-02
     15573 MEMB     125      PMPE     C211     CTL2    -0.180000       12.0110           0   0.00000     -0.301140E-02
     15574 MEMB     125      PMPE     H11R     HAL2     0.900000E-01   1.00800           0   0.00000     -0.301140E-02
     15575 MEMB     125      PMPE     H11S     HAL2     0.900000E-01   1.00800           0   0.00000     -0.301140E-02
     15576 MEMB     125      PMPE     C212     CTL2    -0.180000       12.0110           0   0.00000     -0.301140E-02
     15577 MEMB     125      PMPE     H12R     HAL2     0.900000E-01   1.00800           0   0.00000     -0.301140E-02
     15578 MEMB     125      PMPE     H12S     HAL2     0.900000E-01   1.00800           0   0.00000     -0.301140E-02
     15579 MEMB     125      PMPE     C213     CTL2    -0.180000       12.0110           0   0.00000     -0.301140E-02
     15580 MEMB     125      PMPE     H13R     HAL2     0.900000E-01   1.00800           0   0.00000     -0.301140E-02
     15581 MEMB     125      PMPE     H13S     HAL2     0.900000E-01   1.00800           0   0.00000     -0.301140E-02
     15582 MEMB     125      PMPE     C214     CTL2    -0.180000       12.0110           0   0.00000     -0.301140E-02
     15583 MEMB     125      PMPE     H14R     HAL2     0.900000E-01   1.00800           0   0.00000     -0.301140E-02
     15584 MEMB     125      PMPE     H14S     HAL2     0.900000E-01   1.00800           0   0.00000     -0.301140E-02
     15585 MEMB     125      PMPE     C215     CTL2    -0.180000       12.0110           0   0.00000     -0.301140E-02
     15586 MEMB     125      PMPE     H15R     HAL2     0.900000E-01   1.00800           0   0.00000     -0.301140E-02
     15587 MEMB     125      PMPE     H15S     HAL2     0.900000E-01   1.00800           0   0.00000     -0.301140E-02
     15588 MEMB     125      PMPE     C216     CTL3    -0.270000       12.0110           0   0.00000     -0.301140E-02
     15589 MEMB     125      PMPE     H16R     HAL3     0.900000E-01   1.00800           0   0.00000     -0.301140E-02
     15590 MEMB     125      PMPE     H16S     HAL3     0.900000E-01   1.00800           0   0.00000     -0.301140E-02
     15591 MEMB     125      PMPE     H16T     HAL3     0.900000E-01   1.00800           0   0.00000     -0.301140E-02
     15592 MEMB     125      PMPE     C33      CTL2    -0.180000       12.0110           0   0.00000     -0.301140E-02
     15593 MEMB     125      PMPE     H3X      HAL2     0.900000E-01   1.00800           0   0.00000     -0.301140E-02
     15594 MEMB     125      PMPE     H3Y      HAL2     0.900000E-01   1.00800           0   0.00000     -0.301140E-02
     15595 MEMB     125      PMPE     C34      CTL2    -0.180000       12.0110           0   0.00000     -0.301140E-02
     15596 MEMB     125      PMPE     H4X      HAL2     0.900000E-01   1.00800           0   0.00000     -0.301140E-02
     15597 MEMB     125      PMPE     H4Y      HAL2     0.900000E-01   1.00800           0   0.00000     -0.301140E-02
     15598 MEMB     125      PMPE     C35      CTL2    -0.180000       12.0110           0   0.00000     -0.301140E-02
     15599 MEMB     125      PMPE     H5X      HAL2     0.900000E-01   1.00800           0   0.00000     -0.301140E-02
     15600 MEMB     125      PMPE     H5Y      HAL2     0.900000E-01   1.00800           0   0.00000     -0.301140E-02
     15601 MEMB     125      PMPE     C36      CTL2    -0.180000       12.0110           0   0.00000     -0.301140E-02
     15602 MEMB     125      PMPE     H6X      HAL2     0.900000E-01   1.00800           0   0.00000     -0.301140E-02
     15603 MEMB     125      PMPE     H6Y      HAL2     0.900000E-01   1.00800           0   0.00000     -0.301140E-02
     15604 MEMB     125      PMPE     C37      CTL2    -0.180000       12.0110           0   0.00000     -0.301140E-02
     15605 MEMB     125      PMPE     H7X      HAL2     0.900000E-01   1.00800           0   0.00000     -0.301140E-02
     15606 MEMB     125      PMPE     H7Y      HAL2     0.900000E-01   1.00800           0   0.00000     -0.301140E-02
     15607 MEMB     125      PMPE     C38      CTL2    -0.180000       12.0110           0   0.00000     -0.301140E-02
     15608 MEMB     125      PMPE     H8X      HAL2     0.900000E-01   1.00800           0   0.00000     -0.301140E-02
     15609 MEMB     125      PMPE     H8Y      HAL2     0.900000E-01   1.00800           0   0.00000     -0.301140E-02
     15610 MEMB     125      PMPE     C39      CTL2    -0.180000       12.0110           0   0.00000     -0.301140E-02
     15611 MEMB     125      PMPE     H9X      HAL2     0.900000E-01   1.00800           0   0.00000     -0.301140E-02
     15612 MEMB     125      PMPE     H9Y      HAL2     0.900000E-01   1.00800           0   0.00000     -0.301140E-02
     15613 MEMB     125      PMPE     C310     CTL2    -0.180000       12.0110           0   0.00000     -0.301140E-02
     15614 MEMB     125      PMPE     H10X     HAL2     0.900000E-01   1.00800           0   0.00000     -0.301140E-02
     15615 MEMB     125      PMPE     H10Y     HAL2     0.900000E-01   1.00800           0   0.00000     -0.301140E-02
     15616 MEMB     125      PMPE     C311     CTL2    -0.180000       12.0110           0   0.00000     -0.301140E-02
     15617 MEMB     125      PMPE     H11X     HAL2     0.900000E-01   1.00800           0   0.00000     -0.301140E-02
     15618 MEMB     125      PMPE     H11Y     HAL2     0.900000E-01   1.00800           0   0.00000     -0.301140E-02
     15619 MEMB     125      PMPE     C312     CTL2    -0.180000       12.0110           0   0.00000     -0.301140E-02
     15620 MEMB     125      PMPE     H12X     HAL2     0.900000E-01   1.00800           0   0.00000     -0.301140E-02
     15621 MEMB     125      PMPE     H12Y     HAL2     0.900000E-01   1.00800           0   0.00000     -0.301140E-02
     15622 MEMB     125      PMPE     C313     CTL2    -0.180000       12.0110           0   0.00000     -0.301140E-02
     15623 MEMB     125      PMPE     H13X     HAL2     0.900000E-01   1.00800           0   0.00000     -0.301140E-02
     15624 MEMB     125      PMPE     H13Y     HAL2     0.900000E-01   1.00800           0   0.00000     -0.301140E-02
     15625 MEMB     125      PMPE     C314     CTL2    -0.180000       12.0110           0   0.00000     -0.301140E-02
     15626 MEMB     125      PMPE     H14X     HAL2     0.900000E-01   1.00800           0   0.00000     -0.301140E-02
     15627 MEMB     125      PMPE     H14Y     HAL2     0.900000E-01   1.00800           0   0.00000     -0.301140E-02
     15628 MEMB     125      PMPE     C315     CTL2    -0.180000       12.0110           0   0.00000     -0.301140E-02
     15629 MEMB     125      PMPE     H15X     HAL2     0.900000E-01   1.00800           0   0.00000     -0.301140E-02
     15630 MEMB     125      PMPE     H15Y     HAL2     0.900000E-01   1.00800           0   0.00000     -0.301140E-02
     15631 MEMB     125      PMPE     C316     CTL3    -0.270000       12.0110           0   0.00000     -0.301140E-02
     15632 MEMB     125      PMPE     H16X     HAL3     0.900000E-01   1.00800           0   0.00000     -0.301140E-02
     15633 MEMB     125      PMPE     H16Y     HAL3     0.900000E-01   1.00800           0   0.00000     -0.301140E-02
     15634 MEMB     125      PMPE     H16Z     HAL3     0.900000E-01   1.00800           0   0.00000     -0.301140E-02
     15635 MEMB     126      PMPE     N        NH3L    -0.300000       14.0070           0   0.00000     -0.301140E-02
     15636 MEMB     126      PMPE     HN1      HCL      0.330000       1.00800           0   0.00000     -0.301140E-02
     15637 MEMB     126      PMPE     HN2      HCL      0.330000       1.00800           0   0.00000     -0.301140E-02
     15638 MEMB     126      PMPE     HN3      HCL      0.330000       1.00800           0   0.00000     -0.301140E-02
     15639 MEMB     126      PMPE     C12      CTL2     0.130000       12.0110           0   0.00000     -0.301140E-02
     15640 MEMB     126      PMPE     H12A     HAL2     0.900000E-01   1.00800           0   0.00000     -0.301140E-02
     15641 MEMB     126      PMPE     H12B     HAL2     0.900000E-01   1.00800           0   0.00000     -0.301140E-02
     15642 MEMB     126      PMPE     C11      CTL2    -0.800000E-01   12.0110           0   0.00000     -0.301140E-02
     15643 MEMB     126      PMPE     H11A     HAL2     0.900000E-01   1.00800           0   0.00000     -0.301140E-02
     15644 MEMB     126      PMPE     H11B     HAL2     0.900000E-01   1.00800           0   0.00000     -0.301140E-02
     15645 MEMB     126      PMPE     P        PL        1.50000       30.9740           0   0.00000     -0.301140E-02
     15646 MEMB     126      PMPE     O13      O2L     -0.780000       15.9994           0   0.00000     -0.301140E-02
     15647 MEMB     126      PMPE     O14      O2L     -0.780000       15.9994           0   0.00000     -0.301140E-02
     15648 MEMB     126      PMPE     O11      OSLP    -0.570000       15.9994           0   0.00000     -0.301140E-02
     15649 MEMB     126      PMPE     O12      OSLP    -0.570000       15.9994           0   0.00000     -0.301140E-02
     15650 MEMB     126      PMPE     C1       CTL2    -0.800000E-01   12.0110           0   0.00000     -0.301140E-02
     15651 MEMB     126      PMPE     HA       HAL2     0.900000E-01   1.00800           0   0.00000     -0.301140E-02
     15652 MEMB     126      PMPE     HB       HAL2     0.900000E-01   1.00800           0   0.00000     -0.301140E-02
     15653 MEMB     126      PMPE     C2       CTL1     0.170000       12.0110           0   0.00000     -0.301140E-02
     15654 MEMB     126      PMPE     HS       HAL1     0.900000E-01   1.00800           0   0.00000     -0.301140E-02
     15655 MEMB     126      PMPE     O21      OSL     -0.490000       15.9994           0   0.00000     -0.301140E-02
     15656 MEMB     126      PMPE     C21      CL       0.900000       12.0110           0   0.00000     -0.301140E-02
     15657 MEMB     126      PMPE     O22      OBL     -0.630000       15.9994           0   0.00000     -0.301140E-02
     15658 MEMB     126      PMPE     C22      CTL2    -0.220000       12.0110           0   0.00000     -0.301140E-02
     15659 MEMB     126      PMPE     H2R      HAL2     0.900000E-01   1.00800           0   0.00000     -0.301140E-02
     15660 MEMB     126      PMPE     H2S      HAL2     0.900000E-01   1.00800           0   0.00000     -0.301140E-02
     15661 MEMB     126      PMPE     C3       CTL2     0.800000E-01   12.0110           0   0.00000     -0.301140E-02
     15662 MEMB     126      PMPE     HX       HAL2     0.900000E-01   1.00800           0   0.00000     -0.301140E-02
     15663 MEMB     126      PMPE     HY       HAL2     0.900000E-01   1.00800           0   0.00000     -0.301140E-02
     15664 MEMB     126      PMPE     O31      OSL     -0.490000       15.9994           0   0.00000     -0.301140E-02
     15665 MEMB     126      PMPE     C31      CL       0.900000       12.0110           0   0.00000     -0.301140E-02
     15666 MEMB     126      PMPE     O32      OBL     -0.630000       15.9994           0   0.00000     -0.301140E-02
     15667 MEMB     126      PMPE     C32      CTL2    -0.220000       12.0110           0   0.00000     -0.301140E-02
     15668 MEMB     126      PMPE     H2X      HAL2     0.900000E-01   1.00800           0   0.00000     -0.301140E-02
     15669 MEMB     126      PMPE     H2Y      HAL2     0.900000E-01   1.00800           0   0.00000     -0.301140E-02
     15670 MEMB     126      PMPE     C23      CTL2    -0.180000       12.0110           0   0.00000     -0.301140E-02
     15671 MEMB     126      PMPE     H3R      HAL2     0.900000E-01   1.00800           0   0.00000     -0.301140E-02
     15672 MEMB     126      PMPE     H3S      HAL2     0.900000E-01   1.00800           0   0.00000     -0.301140E-02
     15673 MEMB     126      PMPE     C24      CTL2    -0.180000       12.0110           0   0.00000     -0.301140E-02
     15674 MEMB     126      PMPE     H4R      HAL2     0.900000E-01   1.00800           0   0.00000     -0.301140E-02
     15675 MEMB     126      PMPE     H4S      HAL2     0.900000E-01   1.00800           0   0.00000     -0.301140E-02
     15676 MEMB     126      PMPE     C25      CTL2    -0.180000       12.0110           0   0.00000     -0.301140E-02
     15677 MEMB     126      PMPE     H5R      HAL2     0.900000E-01   1.00800           0   0.00000     -0.301140E-02
     15678 MEMB     126      PMPE     H5S      HAL2     0.900000E-01   1.00800           0   0.00000     -0.301140E-02
     15679 MEMB     126      PMPE     C26      CTL2    -0.180000       12.0110           0   0.00000     -0.301140E-02
     15680 MEMB     126      PMPE     H6R      HAL2     0.900000E-01   1.00800           0   0.00000     -0.301140E-02
     15681 MEMB     126      PMPE     H6S      HAL2     0.900000E-01   1.00800           0   0.00000     -0.301140E-02
     15682 MEMB     126      PMPE     C27      CTL2    -0.180000       12.0110           0   0.00000     -0.301140E-02
     15683 MEMB     126      PMPE     H7R      HAL2     0.900000E-01   1.00800           0   0.00000     -0.301140E-02
     15684 MEMB     126      PMPE     H7S      HAL2     0.900000E-01   1.00800           0   0.00000     -0.301140E-02
     15685 MEMB     126      PMPE     C28      CTL2    -0.180000       12.0110           0   0.00000     -0.301140E-02
     15686 MEMB     126      PMPE     H8R      HAL2     0.900000E-01   1.00800           0   0.00000     -0.301140E-02
     15687 MEMB     126      PMPE     H8S      HAL2     0.900000E-01   1.00800           0   0.00000     -0.301140E-02
     15688 MEMB     126      PMPE     C29      CG3RC1  -0.900000E-01   12.0110           0   0.00000     -0.301140E-02
     15689 MEMB     126      PMPE     H9R      HGA1     0.900000E-01   1.00800           0   0.00000     -0.301140E-02
     15690 MEMB     126      PMPE     C217     CG3C31  -0.180000       12.0110           0   0.00000     -0.301140E-02
     15691 MEMB     126      PMPE     H17R     HGA2     0.900000E-01   1.00800           0   0.00000     -0.301140E-02
     15692 MEMB     126      PMPE     H17S     HGA2     0.900000E-01   1.00800           0   0.00000     -0.301140E-02
     15693 MEMB     126      PMPE     C210     CG3RC1  -0.900000E-01   12.0110           0   0.00000     -0.301140E-02
     15694 MEMB     126      PMPE     H10R     HGA1     0.900000E-01   1.00800           0   0.00000     -0.301140E-02
     15695 MEMB     126      PMPE     C211     CTL2    -0.180000       12.0110           0   0.00000     -0.301140E-02
     15696 MEMB     126      PMPE     H11R     HAL2     0.900000E-01   1.00800           0   0.00000     -0.301140E-02
     15697 MEMB     126      PMPE     H11S     HAL2     0.900000E-01   1.00800           0   0.00000     -0.301140E-02
     15698 MEMB     126      PMPE     C212     CTL2    -0.180000       12.0110           0   0.00000     -0.301140E-02
     15699 MEMB     126      PMPE     H12R     HAL2     0.900000E-01   1.00800           0   0.00000     -0.301140E-02
     15700 MEMB     126      PMPE     H12S     HAL2     0.900000E-01   1.00800           0   0.00000     -0.301140E-02
     15701 MEMB     126      PMPE     C213     CTL2    -0.180000       12.0110           0   0.00000     -0.301140E-02
     15702 MEMB     126      PMPE     H13R     HAL2     0.900000E-01   1.00800           0   0.00000     -0.301140E-02
     15703 MEMB     126      PMPE     H13S     HAL2     0.900000E-01   1.00800           0   0.00000     -0.301140E-02
     15704 MEMB     126      PMPE     C214     CTL2    -0.180000       12.0110           0   0.00000     -0.301140E-02
     15705 MEMB     126      PMPE     H14R     HAL2     0.900000E-01   1.00800           0   0.00000     -0.301140E-02
     15706 MEMB     126      PMPE     H14S     HAL2     0.900000E-01   1.00800           0   0.00000     -0.301140E-02
     15707 MEMB     126      PMPE     C215     CTL2    -0.180000       12.0110           0   0.00000     -0.301140E-02
     15708 MEMB     126      PMPE     H15R     HAL2     0.900000E-01   1.00800           0   0.00000     -0.301140E-02
     15709 MEMB     126      PMPE     H15S     HAL2     0.900000E-01   1.00800           0   0.00000     -0.301140E-02
     15710 MEMB     126      PMPE     C216     CTL3    -0.270000       12.0110           0   0.00000     -0.301140E-02
     15711 MEMB     126      PMPE     H16R     HAL3     0.900000E-01   1.00800           0   0.00000     -0.301140E-02
     15712 MEMB     126      PMPE     H16S     HAL3     0.900000E-01   1.00800           0   0.00000     -0.301140E-02
     15713 MEMB     126      PMPE     H16T     HAL3     0.900000E-01   1.00800           0   0.00000     -0.301140E-02
     15714 MEMB     126      PMPE     C33      CTL2    -0.180000       12.0110           0   0.00000     -0.301140E-02
     15715 MEMB     126      PMPE     H3X      HAL2     0.900000E-01   1.00800           0   0.00000     -0.301140E-02
     15716 MEMB     126      PMPE     H3Y      HAL2     0.900000E-01   1.00800           0   0.00000     -0.301140E-02
     15717 MEMB     126      PMPE     C34      CTL2    -0.180000       12.0110           0   0.00000     -0.301140E-02
     15718 MEMB     126      PMPE     H4X      HAL2     0.900000E-01   1.00800           0   0.00000     -0.301140E-02
     15719 MEMB     126      PMPE     H4Y      HAL2     0.900000E-01   1.00800           0   0.00000     -0.301140E-02
     15720 MEMB     126      PMPE     C35      CTL2    -0.180000       12.0110           0   0.00000     -0.301140E-02
     15721 MEMB     126      PMPE     H5X      HAL2     0.900000E-01   1.00800           0   0.00000     -0.301140E-02
     15722 MEMB     126      PMPE     H5Y      HAL2     0.900000E-01   1.00800           0   0.00000     -0.301140E-02
     15723 MEMB     126      PMPE     C36      CTL2    -0.180000       12.0110           0   0.00000     -0.301140E-02
     15724 MEMB     126      PMPE     H6X      HAL2     0.900000E-01   1.00800           0   0.00000     -0.301140E-02
     15725 MEMB     126      PMPE     H6Y      HAL2     0.900000E-01   1.00800           0   0.00000     -0.301140E-02
     15726 MEMB     126      PMPE     C37      CTL2    -0.180000       12.0110           0   0.00000     -0.301140E-02
     15727 MEMB     126      PMPE     H7X      HAL2     0.900000E-01   1.00800           0   0.00000     -0.301140E-02
     15728 MEMB     126      PMPE     H7Y      HAL2     0.900000E-01   1.00800           0   0.00000     -0.301140E-02
     15729 MEMB     126      PMPE     C38      CTL2    -0.180000       12.0110           0   0.00000     -0.301140E-02
     15730 MEMB     126      PMPE     H8X      HAL2     0.900000E-01   1.00800           0   0.00000     -0.301140E-02
     15731 MEMB     126      PMPE     H8Y      HAL2     0.900000E-01   1.00800           0   0.00000     -0.301140E-02
     15732 MEMB     126      PMPE     C39      CTL2    -0.180000       12.0110           0   0.00000     -0.301140E-02
     15733 MEMB     126      PMPE     H9X      HAL2     0.900000E-01   1.00800           0   0.00000     -0.301140E-02
     15734 MEMB     126      PMPE     H9Y      HAL2     0.900000E-01   1.00800           0   0.00000     -0.301140E-02
     15735 MEMB     126      PMPE     C310     CTL2    -0.180000       12.0110           0   0.00000     -0.301140E-02
     15736 MEMB     126      PMPE     H10X     HAL2     0.900000E-01   1.00800           0   0.00000     -0.301140E-02
     15737 MEMB     126      PMPE     H10Y     HAL2     0.900000E-01   1.00800           0   0.00000     -0.301140E-02
     15738 MEMB     126      PMPE     C311     CTL2    -0.180000       12.0110           0   0.00000     -0.301140E-02
     15739 MEMB     126      PMPE     H11X     HAL2     0.900000E-01   1.00800           0   0.00000     -0.301140E-02
     15740 MEMB     126      PMPE     H11Y     HAL2     0.900000E-01   1.00800           0   0.00000     -0.301140E-02
     15741 MEMB     126      PMPE     C312     CTL2    -0.180000       12.0110           0   0.00000     -0.301140E-02
     15742 MEMB     126      PMPE     H12X     HAL2     0.900000E-01   1.00800           0   0.00000     -0.301140E-02
     15743 MEMB     126      PMPE     H12Y     HAL2     0.900000E-01   1.00800           0   0.00000     -0.301140E-02
     15744 MEMB     126      PMPE     C313     CTL2    -0.180000       12.0110           0   0.00000     -0.301140E-02
     15745 MEMB     126      PMPE     H13X     HAL2     0.900000E-01   1.00800           0   0.00000     -0.301140E-02
     15746 MEMB     126      PMPE     H13Y     HAL2     0.900000E-01   1.00800           0   0.00000     -0.301140E-02
     15747 MEMB     126      PMPE     C314     CTL2    -0.180000       12.0110           0   0.00000     -0.301140E-02
     15748 MEMB     126      PMPE     H14X     HAL2     0.900000E-01   1.00800           0   0.00000     -0.301140E-02
     15749 MEMB     126      PMPE     H14Y     HAL2     0.900000E-01   1.00800           0   0.00000     -0.301140E-02
     15750 MEMB     126      PMPE     C315     CTL2    -0.180000       12.0110           0   0.00000     -0.301140E-02
     15751 MEMB     126      PMPE     H15X     HAL2     0.900000E-01   1.00800           0   0.00000     -0.301140E-02
     15752 MEMB     126      PMPE     H15Y     HAL2     0.900000E-01   1.00800           0   0.00000     -0.301140E-02
     15753 MEMB     126      PMPE     C316     CTL3    -0.270000       12.0110           0   0.00000     -0.301140E-02
     15754 MEMB     126      PMPE     H16X     HAL3     0.900000E-01   1.00800           0   0.00000     -0.301140E-02
     15755 MEMB     126      PMPE     H16Y     HAL3     0.900000E-01   1.00800           0   0.00000     -0.301140E-02
     15756 MEMB     126      PMPE     H16Z     HAL3     0.900000E-01   1.00800           0   0.00000     -0.301140E-02
     15757 MEMB     127      QMPE     N        NH3L    -0.300000       14.0070           0   0.00000     -0.301140E-02
     15758 MEMB     127      QMPE     HN1      HCL      0.330000       1.00800           0   0.00000     -0.301140E-02
     15759 MEMB     127      QMPE     HN2      HCL      0.330000       1.00800           0   0.00000     -0.301140E-02
     15760 MEMB     127      QMPE     HN3      HCL      0.330000       1.00800           0   0.00000     -0.301140E-02
     15761 MEMB     127      QMPE     C12      CTL2     0.130000       12.0110           0   0.00000     -0.301140E-02
     15762 MEMB     127      QMPE     H12A     HAL2     0.900000E-01   1.00800           0   0.00000     -0.301140E-02
     15763 MEMB     127      QMPE     H12B     HAL2     0.900000E-01   1.00800           0   0.00000     -0.301140E-02
     15764 MEMB     127      QMPE     C11      CTL2    -0.800000E-01   12.0110           0   0.00000     -0.301140E-02
     15765 MEMB     127      QMPE     H11A     HAL2     0.900000E-01   1.00800           0   0.00000     -0.301140E-02
     15766 MEMB     127      QMPE     H11B     HAL2     0.900000E-01   1.00800           0   0.00000     -0.301140E-02
     15767 MEMB     127      QMPE     P        PL        1.50000       30.9740           0   0.00000     -0.301140E-02
     15768 MEMB     127      QMPE     O13      O2L     -0.780000       15.9994           0   0.00000     -0.301140E-02
     15769 MEMB     127      QMPE     O14      O2L     -0.780000       15.9994           0   0.00000     -0.301140E-02
     15770 MEMB     127      QMPE     O11      OSLP    -0.570000       15.9994           0   0.00000     -0.301140E-02
     15771 MEMB     127      QMPE     O12      OSLP    -0.570000       15.9994           0   0.00000     -0.301140E-02
     15772 MEMB     127      QMPE     C1       CTL2    -0.800000E-01   12.0110           0   0.00000     -0.301140E-02
     15773 MEMB     127      QMPE     HA       HAL2     0.900000E-01   1.00800           0   0.00000     -0.301140E-02
     15774 MEMB     127      QMPE     HB       HAL2     0.900000E-01   1.00800           0   0.00000     -0.301140E-02
     15775 MEMB     127      QMPE     C2       CTL1     0.170000       12.0110           0   0.00000     -0.301140E-02
     15776 MEMB     127      QMPE     HS       HAL1     0.900000E-01   1.00800           0   0.00000     -0.301140E-02
     15777 MEMB     127      QMPE     O21      OSL     -0.490000       15.9994           0   0.00000     -0.301140E-02
     15778 MEMB     127      QMPE     C21      CL       0.900000       12.0110           0   0.00000     -0.301140E-02
     15779 MEMB     127      QMPE     O22      OBL     -0.630000       15.9994           0   0.00000     -0.301140E-02
     15780 MEMB     127      QMPE     C22      CTL2    -0.220000       12.0110           0   0.00000     -0.301140E-02
     15781 MEMB     127      QMPE     H2R      HAL2     0.900000E-01   1.00800           0   0.00000     -0.301140E-02
     15782 MEMB     127      QMPE     H2S      HAL2     0.900000E-01   1.00800           0   0.00000     -0.301140E-02
     15783 MEMB     127      QMPE     C3       CTL2     0.800000E-01   12.0110           0   0.00000     -0.301140E-02
     15784 MEMB     127      QMPE     HX       HAL2     0.900000E-01   1.00800           0   0.00000     -0.301140E-02
     15785 MEMB     127      QMPE     HY       HAL2     0.900000E-01   1.00800           0   0.00000     -0.301140E-02
     15786 MEMB     127      QMPE     O31      OSL     -0.490000       15.9994           0   0.00000     -0.301140E-02
     15787 MEMB     127      QMPE     C31      CL       0.900000       12.0110           0   0.00000     -0.301140E-02
     15788 MEMB     127      QMPE     O32      OBL     -0.630000       15.9994           0   0.00000     -0.301140E-02
     15789 MEMB     127      QMPE     C32      CTL2    -0.220000       12.0110           0   0.00000     -0.301140E-02
     15790 MEMB     127      QMPE     H2X      HAL2     0.900000E-01   1.00800           0   0.00000     -0.301140E-02
     15791 MEMB     127      QMPE     H2Y      HAL2     0.900000E-01   1.00800           0   0.00000     -0.301140E-02
     15792 MEMB     127      QMPE     C23      CTL2    -0.180000       12.0110           0   0.00000     -0.301140E-02
     15793 MEMB     127      QMPE     H3R      HAL2     0.900000E-01   1.00800           0   0.00000     -0.301140E-02
     15794 MEMB     127      QMPE     H3S      HAL2     0.900000E-01   1.00800           0   0.00000     -0.301140E-02
     15795 MEMB     127      QMPE     C24      CTL2    -0.180000       12.0110           0   0.00000     -0.301140E-02
     15796 MEMB     127      QMPE     H4R      HAL2     0.900000E-01   1.00800           0   0.00000     -0.301140E-02
     15797 MEMB     127      QMPE     H4S      HAL2     0.900000E-01   1.00800           0   0.00000     -0.301140E-02
     15798 MEMB     127      QMPE     C25      CTL2    -0.180000       12.0110           0   0.00000     -0.301140E-02
     15799 MEMB     127      QMPE     H5R      HAL2     0.900000E-01   1.00800           0   0.00000     -0.301140E-02
     15800 MEMB     127      QMPE     H5S      HAL2     0.900000E-01   1.00800           0   0.00000     -0.301140E-02
     15801 MEMB     127      QMPE     C26      CTL2    -0.180000       12.0110           0   0.00000     -0.301140E-02
     15802 MEMB     127      QMPE     H6R      HAL2     0.900000E-01   1.00800           0   0.00000     -0.301140E-02
     15803 MEMB     127      QMPE     H6S      HAL2     0.900000E-01   1.00800           0   0.00000     -0.301140E-02
     15804 MEMB     127      QMPE     C27      CTL2    -0.180000       12.0110           0   0.00000     -0.301140E-02
     15805 MEMB     127      QMPE     H7R      HAL2     0.900000E-01   1.00800           0   0.00000     -0.301140E-02
     15806 MEMB     127      QMPE     H7S      HAL2     0.900000E-01   1.00800           0   0.00000     -0.301140E-02
     15807 MEMB     127      QMPE     C28      CTL2    -0.180000       12.0110           0   0.00000     -0.301140E-02
     15808 MEMB     127      QMPE     H8R      HAL2     0.900000E-01   1.00800           0   0.00000     -0.301140E-02
     15809 MEMB     127      QMPE     H8S      HAL2     0.900000E-01   1.00800           0   0.00000     -0.301140E-02
     15810 MEMB     127      QMPE     C29      CG3RC1  -0.900000E-01   12.0110           0   0.00000     -0.301140E-02
     15811 MEMB     127      QMPE     H9R      HGA1     0.900000E-01   1.00800           0   0.00000     -0.301140E-02
     15812 MEMB     127      QMPE     C217     CG3C31  -0.180000       12.0110           0   0.00000     -0.301140E-02
     15813 MEMB     127      QMPE     H17R     HGA2     0.900000E-01   1.00800           0   0.00000     -0.301140E-02
     15814 MEMB     127      QMPE     H17S     HGA2     0.900000E-01   1.00800           0   0.00000     -0.301140E-02
     15815 MEMB     127      QMPE     C210     CG3RC1  -0.900000E-01   12.0110           0   0.00000     -0.301140E-02
     15816 MEMB     127      QMPE     H10R     HGA1     0.900000E-01   1.00800           0   0.00000     -0.301140E-02
     15817 MEMB     127      QMPE     C211     CTL2    -0.180000       12.0110           0   0.00000     -0.301140E-02
     15818 MEMB     127      QMPE     H11R     HAL2     0.900000E-01   1.00800           0   0.00000     -0.301140E-02
     15819 MEMB     127      QMPE     H11S     HAL2     0.900000E-01   1.00800           0   0.00000     -0.301140E-02
     15820 MEMB     127      QMPE     C212     CTL2    -0.180000       12.0110           0   0.00000     -0.301140E-02
     15821 MEMB     127      QMPE     H12R     HAL2     0.900000E-01   1.00800           0   0.00000     -0.301140E-02
     15822 MEMB     127      QMPE     H12S     HAL2     0.900000E-01   1.00800           0   0.00000     -0.301140E-02
     15823 MEMB     127      QMPE     C213     CTL2    -0.180000       12.0110           0   0.00000     -0.301140E-02
     15824 MEMB     127      QMPE     H13R     HAL2     0.900000E-01   1.00800           0   0.00000     -0.301140E-02
     15825 MEMB     127      QMPE     H13S     HAL2     0.900000E-01   1.00800           0   0.00000     -0.301140E-02
     15826 MEMB     127      QMPE     C214     CTL2    -0.180000       12.0110           0   0.00000     -0.301140E-02
     15827 MEMB     127      QMPE     H14R     HAL2     0.900000E-01   1.00800           0   0.00000     -0.301140E-02
     15828 MEMB     127      QMPE     H14S     HAL2     0.900000E-01   1.00800           0   0.00000     -0.301140E-02
     15829 MEMB     127      QMPE     C215     CTL2    -0.180000       12.0110           0   0.00000     -0.301140E-02
     15830 MEMB     127      QMPE     H15R     HAL2     0.900000E-01   1.00800           0   0.00000     -0.301140E-02
     15831 MEMB     127      QMPE     H15S     HAL2     0.900000E-01   1.00800           0   0.00000     -0.301140E-02
     15832 MEMB     127      QMPE     C216     CTL3    -0.270000       12.0110           0   0.00000     -0.301140E-02
     15833 MEMB     127      QMPE     H16R     HAL3     0.900000E-01   1.00800           0   0.00000     -0.301140E-02
     15834 MEMB     127      QMPE     H16S     HAL3     0.900000E-01   1.00800           0   0.00000     -0.301140E-02
     15835 MEMB     127      QMPE     H16T     HAL3     0.900000E-01   1.00800           0   0.00000     -0.301140E-02
     15836 MEMB     127      QMPE     C33      CTL2    -0.180000       12.0110           0   0.00000     -0.301140E-02
     15837 MEMB     127      QMPE     H3X      HAL2     0.900000E-01   1.00800           0   0.00000     -0.301140E-02
     15838 MEMB     127      QMPE     H3Y      HAL2     0.900000E-01   1.00800           0   0.00000     -0.301140E-02
     15839 MEMB     127      QMPE     C34      CTL2    -0.180000       12.0110           0   0.00000     -0.301140E-02
     15840 MEMB     127      QMPE     H4X      HAL2     0.900000E-01   1.00800           0   0.00000     -0.301140E-02
     15841 MEMB     127      QMPE     H4Y      HAL2     0.900000E-01   1.00800           0   0.00000     -0.301140E-02
     15842 MEMB     127      QMPE     C35      CTL2    -0.180000       12.0110           0   0.00000     -0.301140E-02
     15843 MEMB     127      QMPE     H5X      HAL2     0.900000E-01   1.00800           0   0.00000     -0.301140E-02
     15844 MEMB     127      QMPE     H5Y      HAL2     0.900000E-01   1.00800           0   0.00000     -0.301140E-02
     15845 MEMB     127      QMPE     C36      CTL2    -0.180000       12.0110           0   0.00000     -0.301140E-02
     15846 MEMB     127      QMPE     H6X      HAL2     0.900000E-01   1.00800           0   0.00000     -0.301140E-02
     15847 MEMB     127      QMPE     H6Y      HAL2     0.900000E-01   1.00800           0   0.00000     -0.301140E-02
     15848 MEMB     127      QMPE     C37      CTL2    -0.180000       12.0110           0   0.00000     -0.301140E-02
     15849 MEMB     127      QMPE     H7X      HAL2     0.900000E-01   1.00800           0   0.00000     -0.301140E-02
     15850 MEMB     127      QMPE     H7Y      HAL2     0.900000E-01   1.00800           0   0.00000     -0.301140E-02
     15851 MEMB     127      QMPE     C38      CTL2    -0.180000       12.0110           0   0.00000     -0.301140E-02
     15852 MEMB     127      QMPE     H8X      HAL2     0.900000E-01   1.00800           0   0.00000     -0.301140E-02
     15853 MEMB     127      QMPE     H8Y      HAL2     0.900000E-01   1.00800           0   0.00000     -0.301140E-02
     15854 MEMB     127      QMPE     C39      CTL2    -0.180000       12.0110           0   0.00000     -0.301140E-02
     15855 MEMB     127      QMPE     H9X      HAL2     0.900000E-01   1.00800           0   0.00000     -0.301140E-02
     15856 MEMB     127      QMPE     H9Y      HAL2     0.900000E-01   1.00800           0   0.00000     -0.301140E-02
     15857 MEMB     127      QMPE     C310     CTL2    -0.180000       12.0110           0   0.00000     -0.301140E-02
     15858 MEMB     127      QMPE     H10X     HAL2     0.900000E-01   1.00800           0   0.00000     -0.301140E-02
     15859 MEMB     127      QMPE     H10Y     HAL2     0.900000E-01   1.00800           0   0.00000     -0.301140E-02
     15860 MEMB     127      QMPE     C311     CTL2    -0.180000       12.0110           0   0.00000     -0.301140E-02
     15861 MEMB     127      QMPE     H11X     HAL2     0.900000E-01   1.00800           0   0.00000     -0.301140E-02
     15862 MEMB     127      QMPE     H11Y     HAL2     0.900000E-01   1.00800           0   0.00000     -0.301140E-02
     15863 MEMB     127      QMPE     C312     CTL2    -0.180000       12.0110           0   0.00000     -0.301140E-02
     15864 MEMB     127      QMPE     H12X     HAL2     0.900000E-01   1.00800           0   0.00000     -0.301140E-02
     15865 MEMB     127      QMPE     H12Y     HAL2     0.900000E-01   1.00800           0   0.00000     -0.301140E-02
     15866 MEMB     127      QMPE     C313     CTL2    -0.180000       12.0110           0   0.00000     -0.301140E-02
     15867 MEMB     127      QMPE     H13X     HAL2     0.900000E-01   1.00800           0   0.00000     -0.301140E-02
     15868 MEMB     127      QMPE     H13Y     HAL2     0.900000E-01   1.00800           0   0.00000     -0.301140E-02
     15869 MEMB     127      QMPE     C314     CTL2    -0.180000       12.0110           0   0.00000     -0.301140E-02
     15870 MEMB     127      QMPE     H14X     HAL2     0.900000E-01   1.00800           0   0.00000     -0.301140E-02
     15871 MEMB     127      QMPE     H14Y     HAL2     0.900000E-01   1.00800           0   0.00000     -0.301140E-02
     15872 MEMB     127      QMPE     C315     CTL3    -0.270000       12.0110           0   0.00000     -0.301140E-02
     15873 MEMB     127      QMPE     H15X     HAL3     0.900000E-01   1.00800           0   0.00000     -0.301140E-02
     15874 MEMB     127      QMPE     H15Y     HAL3     0.900000E-01   1.00800           0   0.00000     -0.301140E-02
     15875 MEMB     127      QMPE     H15Z     HAL3     0.900000E-01   1.00800           0   0.00000     -0.301140E-02
     15876 MEMB     128      PYPG     C13      CTL2     0.500000E-01   12.0110           0   0.00000     -0.301140E-02
     15877 MEMB     128      PYPG     H13A     HAL2     0.900000E-01   1.00800           0   0.00000     -0.301140E-02
     15878 MEMB     128      PYPG     H13B     HAL2     0.900000E-01   1.00800           0   0.00000     -0.301140E-02
     15879 MEMB     128      PYPG     OC3      OHL     -0.660000       15.9994           0   0.00000     -0.301140E-02
     15880 MEMB     128      PYPG     HO3      HOL      0.430000       1.00800           0   0.00000     -0.301140E-02
     15881 MEMB     128      PYPG     C12      CTL1     0.140000       12.0110           0   0.00000     -0.301140E-02
     15882 MEMB     128      PYPG     H12A     HAL1     0.900000E-01   1.00800           0   0.00000     -0.301140E-02
     15883 MEMB     128      PYPG     OC2      OHL     -0.660000       15.9994           0   0.00000     -0.301140E-02
     15884 MEMB     128      PYPG     HO2      HOL      0.430000       1.00800           0   0.00000     -0.301140E-02
     15885 MEMB     128      PYPG     C11      CTL2    -0.800000E-01   12.0110           0   0.00000     -0.301140E-02
     15886 MEMB     128      PYPG     H11A     HAL2     0.900000E-01   1.00800           0   0.00000     -0.301140E-02
     15887 MEMB     128      PYPG     H11B     HAL2     0.900000E-01   1.00800           0   0.00000     -0.301140E-02
     15888 MEMB     128      PYPG     P        PL        1.50000       30.9740           0   0.00000     -0.301140E-02
     15889 MEMB     128      PYPG     O13      O2L     -0.780000       15.9994           0   0.00000     -0.301140E-02
     15890 MEMB     128      PYPG     O14      O2L     -0.780000       15.9994           0   0.00000     -0.301140E-02
     15891 MEMB     128      PYPG     O11      OSLP    -0.570000       15.9994           0   0.00000     -0.301140E-02
     15892 MEMB     128      PYPG     O12      OSLP    -0.570000       15.9994           0   0.00000     -0.301140E-02
     15893 MEMB     128      PYPG     C1       CTL2    -0.800000E-01   12.0110           0   0.00000     -0.301140E-02
     15894 MEMB     128      PYPG     HA       HAL2     0.900000E-01   1.00800           0   0.00000     -0.301140E-02
     15895 MEMB     128      PYPG     HB       HAL2     0.900000E-01   1.00800           0   0.00000     -0.301140E-02
     15896 MEMB     128      PYPG     C2       CTL1     0.170000       12.0110           0   0.00000     -0.301140E-02
     15897 MEMB     128      PYPG     HS       HAL1     0.900000E-01   1.00800           0   0.00000     -0.301140E-02
     15898 MEMB     128      PYPG     O21      OSL     -0.490000       15.9994           0   0.00000     -0.301140E-02
     15899 MEMB     128      PYPG     C21      CL       0.900000       12.0110           0   0.00000     -0.301140E-02
     15900 MEMB     128      PYPG     O22      OBL     -0.630000       15.9994           0   0.00000     -0.301140E-02
     15901 MEMB     128      PYPG     C22      CTL2    -0.220000       12.0110           0   0.00000     -0.301140E-02
     15902 MEMB     128      PYPG     H2R      HAL2     0.900000E-01   1.00800           0   0.00000     -0.301140E-02
     15903 MEMB     128      PYPG     H2S      HAL2     0.900000E-01   1.00800           0   0.00000     -0.301140E-02
     15904 MEMB     128      PYPG     C3       CTL2     0.800000E-01   12.0110           0   0.00000     -0.301140E-02
     15905 MEMB     128      PYPG     HX       HAL2     0.900000E-01   1.00800           0   0.00000     -0.301140E-02
     15906 MEMB     128      PYPG     HY       HAL2     0.900000E-01   1.00800           0   0.00000     -0.301140E-02
     15907 MEMB     128      PYPG     O31      OSL     -0.490000       15.9994           0   0.00000     -0.301140E-02
     15908 MEMB     128      PYPG     C31      CL       0.900000       12.0110           0   0.00000     -0.301140E-02
     15909 MEMB     128      PYPG     O32      OBL     -0.630000       15.9994           0   0.00000     -0.301140E-02
     15910 MEMB     128      PYPG     C32      CTL2    -0.220000       12.0110           0   0.00000     -0.301140E-02
     15911 MEMB     128      PYPG     H2X      HAL2     0.900000E-01   1.00800           0   0.00000     -0.301140E-02
     15912 MEMB     128      PYPG     H2Y      HAL2     0.900000E-01   1.00800           0   0.00000     -0.301140E-02
     15913 MEMB     128      PYPG     C23      CTL2    -0.180000       12.0110           0   0.00000     -0.301140E-02
     15914 MEMB     128      PYPG     H3R      HAL2     0.900000E-01   1.00800           0   0.00000     -0.301140E-02
     15915 MEMB     128      PYPG     H3S      HAL2     0.900000E-01   1.00800           0   0.00000     -0.301140E-02
     15916 MEMB     128      PYPG     C24      CTL2    -0.180000       12.0110           0   0.00000     -0.301140E-02
     15917 MEMB     128      PYPG     H4R      HAL2     0.900000E-01   1.00800           0   0.00000     -0.301140E-02
     15918 MEMB     128      PYPG     H4S      HAL2     0.900000E-01   1.00800           0   0.00000     -0.301140E-02
     15919 MEMB     128      PYPG     C25      CTL2    -0.180000       12.0110           0   0.00000     -0.301140E-02
     15920 MEMB     128      PYPG     H5R      HAL2     0.900000E-01   1.00800           0   0.00000     -0.301140E-02
     15921 MEMB     128      PYPG     H5S      HAL2     0.900000E-01   1.00800           0   0.00000     -0.301140E-02
     15922 MEMB     128      PYPG     C26      CTL2    -0.180000       12.0110           0   0.00000     -0.301140E-02
     15923 MEMB     128      PYPG     H6R      HAL2     0.900000E-01   1.00800           0   0.00000     -0.301140E-02
     15924 MEMB     128      PYPG     H6S      HAL2     0.900000E-01   1.00800           0   0.00000     -0.301140E-02
     15925 MEMB     128      PYPG     C27      CTL2    -0.180000       12.0110           0   0.00000     -0.301140E-02
     15926 MEMB     128      PYPG     H7R      HAL2     0.900000E-01   1.00800           0   0.00000     -0.301140E-02
     15927 MEMB     128      PYPG     H7S      HAL2     0.900000E-01   1.00800           0   0.00000     -0.301140E-02
     15928 MEMB     128      PYPG     C28      CTL2    -0.180000       12.0110           0   0.00000     -0.301140E-02
     15929 MEMB     128      PYPG     H8R      HAL2     0.900000E-01   1.00800           0   0.00000     -0.301140E-02
     15930 MEMB     128      PYPG     H8S      HAL2     0.900000E-01   1.00800           0   0.00000     -0.301140E-02
     15931 MEMB     128      PYPG     C29      CEL1    -0.150000       12.0110           0   0.00000     -0.301140E-02
     15932 MEMB     128      PYPG     H9R      HEL1     0.150000       1.00800           0   0.00000     -0.301140E-02
     15933 MEMB     128      PYPG     C210     CEL1    -0.150000       12.0110           0   0.00000     -0.301140E-02
     15934 MEMB     128      PYPG     H10R     HEL1     0.150000       1.00800           0   0.00000     -0.301140E-02
     15935 MEMB     128      PYPG     C211     CTL2    -0.180000       12.0110           0   0.00000     -0.301140E-02
     15936 MEMB     128      PYPG     H11R     HAL2     0.900000E-01   1.00800           0   0.00000     -0.301140E-02
     15937 MEMB     128      PYPG     H11S     HAL2     0.900000E-01   1.00800           0   0.00000     -0.301140E-02
     15938 MEMB     128      PYPG     C212     CTL2    -0.180000       12.0110           0   0.00000     -0.301140E-02
     15939 MEMB     128      PYPG     H12R     HAL2     0.900000E-01   1.00800           0   0.00000     -0.301140E-02
     15940 MEMB     128      PYPG     H12S     HAL2     0.900000E-01   1.00800           0   0.00000     -0.301140E-02
     15941 MEMB     128      PYPG     C213     CTL2    -0.180000       12.0110           0   0.00000     -0.301140E-02
     15942 MEMB     128      PYPG     H13R     HAL2     0.900000E-01   1.00800           0   0.00000     -0.301140E-02
     15943 MEMB     128      PYPG     H13S     HAL2     0.900000E-01   1.00800           0   0.00000     -0.301140E-02
     15944 MEMB     128      PYPG     C214     CTL2    -0.180000       12.0110           0   0.00000     -0.301140E-02
     15945 MEMB     128      PYPG     H14R     HAL2     0.900000E-01   1.00800           0   0.00000     -0.301140E-02
     15946 MEMB     128      PYPG     H14S     HAL2     0.900000E-01   1.00800           0   0.00000     -0.301140E-02
     15947 MEMB     128      PYPG     C215     CTL2    -0.180000       12.0110           0   0.00000     -0.301140E-02
     15948 MEMB     128      PYPG     H15R     HAL2     0.900000E-01   1.00800           0   0.00000     -0.301140E-02
     15949 MEMB     128      PYPG     H15S     HAL2     0.900000E-01   1.00800           0   0.00000     -0.301140E-02
     15950 MEMB     128      PYPG     C216     CTL3    -0.270000       12.0110           0   0.00000     -0.301140E-02
     15951 MEMB     128      PYPG     H16R     HAL3     0.900000E-01   1.00800           0   0.00000     -0.301140E-02
     15952 MEMB     128      PYPG     H16S     HAL3     0.900000E-01   1.00800           0   0.00000     -0.301140E-02
     15953 MEMB     128      PYPG     H16T     HAL3     0.900000E-01   1.00800           0   0.00000     -0.301140E-02
     15954 MEMB     128      PYPG     C33      CTL2    -0.180000       12.0110           0   0.00000     -0.301140E-02
     15955 MEMB     128      PYPG     H3X      HAL2     0.900000E-01   1.00800           0   0.00000     -0.301140E-02
     15956 MEMB     128      PYPG     H3Y      HAL2     0.900000E-01   1.00800           0   0.00000     -0.301140E-02
     15957 MEMB     128      PYPG     C34      CTL2    -0.180000       12.0110           0   0.00000     -0.301140E-02
     15958 MEMB     128      PYPG     H4X      HAL2     0.900000E-01   1.00800           0   0.00000     -0.301140E-02
     15959 MEMB     128      PYPG     H4Y      HAL2     0.900000E-01   1.00800           0   0.00000     -0.301140E-02
     15960 MEMB     128      PYPG     C35      CTL2    -0.180000       12.0110           0   0.00000     -0.301140E-02
     15961 MEMB     128      PYPG     H5X      HAL2     0.900000E-01   1.00800           0   0.00000     -0.301140E-02
     15962 MEMB     128      PYPG     H5Y      HAL2     0.900000E-01   1.00800           0   0.00000     -0.301140E-02
     15963 MEMB     128      PYPG     C36      CTL2    -0.180000       12.0110           0   0.00000     -0.301140E-02
     15964 MEMB     128      PYPG     H6X      HAL2     0.900000E-01   1.00800           0   0.00000     -0.301140E-02
     15965 MEMB     128      PYPG     H6Y      HAL2     0.900000E-01   1.00800           0   0.00000     -0.301140E-02
     15966 MEMB     128      PYPG     C37      CTL2    -0.180000       12.0110           0   0.00000     -0.301140E-02
     15967 MEMB     128      PYPG     H7X      HAL2     0.900000E-01   1.00800           0   0.00000     -0.301140E-02
     15968 MEMB     128      PYPG     H7Y      HAL2     0.900000E-01   1.00800           0   0.00000     -0.301140E-02
     15969 MEMB     128      PYPG     C38      CTL2    -0.180000       12.0110           0   0.00000     -0.301140E-02
     15970 MEMB     128      PYPG     H8X      HAL2     0.900000E-01   1.00800           0   0.00000     -0.301140E-02
     15971 MEMB     128      PYPG     H8Y      HAL2     0.900000E-01   1.00800           0   0.00000     -0.301140E-02
     15972 MEMB     128      PYPG     C39      CTL2    -0.180000       12.0110           0   0.00000     -0.301140E-02
     15973 MEMB     128      PYPG     H9X      HAL2     0.900000E-01   1.00800           0   0.00000     -0.301140E-02
     15974 MEMB     128      PYPG     H9Y      HAL2     0.900000E-01   1.00800           0   0.00000     -0.301140E-02
     15975 MEMB     128      PYPG     C310     CTL2    -0.180000       12.0110           0   0.00000     -0.301140E-02
     15976 MEMB     128      PYPG     H10X     HAL2     0.900000E-01   1.00800           0   0.00000     -0.301140E-02
     15977 MEMB     128      PYPG     H10Y     HAL2     0.900000E-01   1.00800           0   0.00000     -0.301140E-02
     15978 MEMB     128      PYPG     C311     CTL2    -0.180000       12.0110           0   0.00000     -0.301140E-02
     15979 MEMB     128      PYPG     H11X     HAL2     0.900000E-01   1.00800           0   0.00000     -0.301140E-02
     15980 MEMB     128      PYPG     H11Y     HAL2     0.900000E-01   1.00800           0   0.00000     -0.301140E-02
     15981 MEMB     128      PYPG     C312     CTL2    -0.180000       12.0110           0   0.00000     -0.301140E-02
     15982 MEMB     128      PYPG     H12X     HAL2     0.900000E-01   1.00800           0   0.00000     -0.301140E-02
     15983 MEMB     128      PYPG     H12Y     HAL2     0.900000E-01   1.00800           0   0.00000     -0.301140E-02
     15984 MEMB     128      PYPG     C313     CTL2    -0.180000       12.0110           0   0.00000     -0.301140E-02
     15985 MEMB     128      PYPG     H13X     HAL2     0.900000E-01   1.00800           0   0.00000     -0.301140E-02
     15986 MEMB     128      PYPG     H13Y     HAL2     0.900000E-01   1.00800           0   0.00000     -0.301140E-02
     15987 MEMB     128      PYPG     C314     CTL2    -0.180000       12.0110           0   0.00000     -0.301140E-02
     15988 MEMB     128      PYPG     H14X     HAL2     0.900000E-01   1.00800           0   0.00000     -0.301140E-02
     15989 MEMB     128      PYPG     H14Y     HAL2     0.900000E-01   1.00800           0   0.00000     -0.301140E-02
     15990 MEMB     128      PYPG     C315     CTL2    -0.180000       12.0110           0   0.00000     -0.301140E-02
     15991 MEMB     128      PYPG     H15X     HAL2     0.900000E-01   1.00800           0   0.00000     -0.301140E-02
     15992 MEMB     128      PYPG     H15Y     HAL2     0.900000E-01   1.00800           0   0.00000     -0.301140E-02
     15993 MEMB     128      PYPG     C316     CTL3    -0.270000       12.0110           0   0.00000     -0.301140E-02
     15994 MEMB     128      PYPG     H16X     HAL3     0.900000E-01   1.00800           0   0.00000     -0.301140E-02
     15995 MEMB     128      PYPG     H16Y     HAL3     0.900000E-01   1.00800           0   0.00000     -0.301140E-02
     15996 MEMB     128      PYPG     H16Z     HAL3     0.900000E-01   1.00800           0   0.00000     -0.301140E-02
     15997 MEMB     129      PYPG     C13      CTL2     0.500000E-01   12.0110           0   0.00000     -0.301140E-02
     15998 MEMB     129      PYPG     H13A     HAL2     0.900000E-01   1.00800           0   0.00000     -0.301140E-02
     15999 MEMB     129      PYPG     H13B     HAL2     0.900000E-01   1.00800           0   0.00000     -0.301140E-02
     16000 MEMB     129      PYPG     OC3      OHL     -0.660000       15.9994           0   0.00000     -0.301140E-02
     16001 MEMB     129      PYPG     HO3      HOL      0.430000       1.00800           0   0.00000     -0.301140E-02
     16002 MEMB     129      PYPG     C12      CTL1     0.140000       12.0110           0   0.00000     -0.301140E-02
     16003 MEMB     129      PYPG     H12A     HAL1     0.900000E-01   1.00800           0   0.00000     -0.301140E-02
     16004 MEMB     129      PYPG     OC2      OHL     -0.660000       15.9994           0   0.00000     -0.301140E-02
     16005 MEMB     129      PYPG     HO2      HOL      0.430000       1.00800           0   0.00000     -0.301140E-02
     16006 MEMB     129      PYPG     C11      CTL2    -0.800000E-01   12.0110           0   0.00000     -0.301140E-02
     16007 MEMB     129      PYPG     H11A     HAL2     0.900000E-01   1.00800           0   0.00000     -0.301140E-02
     16008 MEMB     129      PYPG     H11B     HAL2     0.900000E-01   1.00800           0   0.00000     -0.301140E-02
     16009 MEMB     129      PYPG     P        PL        1.50000       30.9740           0   0.00000     -0.301140E-02
     16010 MEMB     129      PYPG     O13      O2L     -0.780000       15.9994           0   0.00000     -0.301140E-02
     16011 MEMB     129      PYPG     O14      O2L     -0.780000       15.9994           0   0.00000     -0.301140E-02
     16012 MEMB     129      PYPG     O11      OSLP    -0.570000       15.9994           0   0.00000     -0.301140E-02
     16013 MEMB     129      PYPG     O12      OSLP    -0.570000       15.9994           0   0.00000     -0.301140E-02
     16014 MEMB     129      PYPG     C1       CTL2    -0.800000E-01   12.0110           0   0.00000     -0.301140E-02
     16015 MEMB     129      PYPG     HA       HAL2     0.900000E-01   1.00800           0   0.00000     -0.301140E-02
     16016 MEMB     129      PYPG     HB       HAL2     0.900000E-01   1.00800           0   0.00000     -0.301140E-02
     16017 MEMB     129      PYPG     C2       CTL1     0.170000       12.0110           0   0.00000     -0.301140E-02
     16018 MEMB     129      PYPG     HS       HAL1     0.900000E-01   1.00800           0   0.00000     -0.301140E-02
     16019 MEMB     129      PYPG     O21      OSL     -0.490000       15.9994           0   0.00000     -0.301140E-02
     16020 MEMB     129      PYPG     C21      CL       0.900000       12.0110           0   0.00000     -0.301140E-02
     16021 MEMB     129      PYPG     O22      OBL     -0.630000       15.9994           0   0.00000     -0.301140E-02
     16022 MEMB     129      PYPG     C22      CTL2    -0.220000       12.0110           0   0.00000     -0.301140E-02
     16023 MEMB     129      PYPG     H2R      HAL2     0.900000E-01   1.00800           0   0.00000     -0.301140E-02
     16024 MEMB     129      PYPG     H2S      HAL2     0.900000E-01   1.00800           0   0.00000     -0.301140E-02
     16025 MEMB     129      PYPG     C3       CTL2     0.800000E-01   12.0110           0   0.00000     -0.301140E-02
     16026 MEMB     129      PYPG     HX       HAL2     0.900000E-01   1.00800           0   0.00000     -0.301140E-02
     16027 MEMB     129      PYPG     HY       HAL2     0.900000E-01   1.00800           0   0.00000     -0.301140E-02
     16028 MEMB     129      PYPG     O31      OSL     -0.490000       15.9994           0   0.00000     -0.301140E-02
     16029 MEMB     129      PYPG     C31      CL       0.900000       12.0110           0   0.00000     -0.301140E-02
     16030 MEMB     129      PYPG     O32      OBL     -0.630000       15.9994           0   0.00000     -0.301140E-02
     16031 MEMB     129      PYPG     C32      CTL2    -0.220000       12.0110           0   0.00000     -0.301140E-02
     16032 MEMB     129      PYPG     H2X      HAL2     0.900000E-01   1.00800           0   0.00000     -0.301140E-02
     16033 MEMB     129      PYPG     H2Y      HAL2     0.900000E-01   1.00800           0   0.00000     -0.301140E-02
     16034 MEMB     129      PYPG     C23      CTL2    -0.180000       12.0110           0   0.00000     -0.301140E-02
     16035 MEMB     129      PYPG     H3R      HAL2     0.900000E-01   1.00800           0   0.00000     -0.301140E-02
     16036 MEMB     129      PYPG     H3S      HAL2     0.900000E-01   1.00800           0   0.00000     -0.301140E-02
     16037 MEMB     129      PYPG     C24      CTL2    -0.180000       12.0110           0   0.00000     -0.301140E-02
     16038 MEMB     129      PYPG     H4R      HAL2     0.900000E-01   1.00800           0   0.00000     -0.301140E-02
     16039 MEMB     129      PYPG     H4S      HAL2     0.900000E-01   1.00800           0   0.00000     -0.301140E-02
     16040 MEMB     129      PYPG     C25      CTL2    -0.180000       12.0110           0   0.00000     -0.301140E-02
     16041 MEMB     129      PYPG     H5R      HAL2     0.900000E-01   1.00800           0   0.00000     -0.301140E-02
     16042 MEMB     129      PYPG     H5S      HAL2     0.900000E-01   1.00800           0   0.00000     -0.301140E-02
     16043 MEMB     129      PYPG     C26      CTL2    -0.180000       12.0110           0   0.00000     -0.301140E-02
     16044 MEMB     129      PYPG     H6R      HAL2     0.900000E-01   1.00800           0   0.00000     -0.301140E-02
     16045 MEMB     129      PYPG     H6S      HAL2     0.900000E-01   1.00800           0   0.00000     -0.301140E-02
     16046 MEMB     129      PYPG     C27      CTL2    -0.180000       12.0110           0   0.00000     -0.301140E-02
     16047 MEMB     129      PYPG     H7R      HAL2     0.900000E-01   1.00800           0   0.00000     -0.301140E-02
     16048 MEMB     129      PYPG     H7S      HAL2     0.900000E-01   1.00800           0   0.00000     -0.301140E-02
     16049 MEMB     129      PYPG     C28      CTL2    -0.180000       12.0110           0   0.00000     -0.301140E-02
     16050 MEMB     129      PYPG     H8R      HAL2     0.900000E-01   1.00800           0   0.00000     -0.301140E-02
     16051 MEMB     129      PYPG     H8S      HAL2     0.900000E-01   1.00800           0   0.00000     -0.301140E-02
     16052 MEMB     129      PYPG     C29      CEL1    -0.150000       12.0110           0   0.00000     -0.301140E-02
     16053 MEMB     129      PYPG     H9R      HEL1     0.150000       1.00800           0   0.00000     -0.301140E-02
     16054 MEMB     129      PYPG     C210     CEL1    -0.150000       12.0110           0   0.00000     -0.301140E-02
     16055 MEMB     129      PYPG     H10R     HEL1     0.150000       1.00800           0   0.00000     -0.301140E-02
     16056 MEMB     129      PYPG     C211     CTL2    -0.180000       12.0110           0   0.00000     -0.301140E-02
     16057 MEMB     129      PYPG     H11R     HAL2     0.900000E-01   1.00800           0   0.00000     -0.301140E-02
     16058 MEMB     129      PYPG     H11S     HAL2     0.900000E-01   1.00800           0   0.00000     -0.301140E-02
     16059 MEMB     129      PYPG     C212     CTL2    -0.180000       12.0110           0   0.00000     -0.301140E-02
     16060 MEMB     129      PYPG     H12R     HAL2     0.900000E-01   1.00800           0   0.00000     -0.301140E-02
     16061 MEMB     129      PYPG     H12S     HAL2     0.900000E-01   1.00800           0   0.00000     -0.301140E-02
     16062 MEMB     129      PYPG     C213     CTL2    -0.180000       12.0110           0   0.00000     -0.301140E-02
     16063 MEMB     129      PYPG     H13R     HAL2     0.900000E-01   1.00800           0   0.00000     -0.301140E-02
     16064 MEMB     129      PYPG     H13S     HAL2     0.900000E-01   1.00800           0   0.00000     -0.301140E-02
     16065 MEMB     129      PYPG     C214     CTL2    -0.180000       12.0110           0   0.00000     -0.301140E-02
     16066 MEMB     129      PYPG     H14R     HAL2     0.900000E-01   1.00800           0   0.00000     -0.301140E-02
     16067 MEMB     129      PYPG     H14S     HAL2     0.900000E-01   1.00800           0   0.00000     -0.301140E-02
     16068 MEMB     129      PYPG     C215     CTL2    -0.180000       12.0110           0   0.00000     -0.301140E-02
     16069 MEMB     129      PYPG     H15R     HAL2     0.900000E-01   1.00800           0   0.00000     -0.301140E-02
     16070 MEMB     129      PYPG     H15S     HAL2     0.900000E-01   1.00800           0   0.00000     -0.301140E-02
     16071 MEMB     129      PYPG     C216     CTL3    -0.270000       12.0110           0   0.00000     -0.301140E-02
     16072 MEMB     129      PYPG     H16R     HAL3     0.900000E-01   1.00800           0   0.00000     -0.301140E-02
     16073 MEMB     129      PYPG     H16S     HAL3     0.900000E-01   1.00800           0   0.00000     -0.301140E-02
     16074 MEMB     129      PYPG     H16T     HAL3     0.900000E-01   1.00800           0   0.00000     -0.301140E-02
     16075 MEMB     129      PYPG     C33      CTL2    -0.180000       12.0110           0   0.00000     -0.301140E-02
     16076 MEMB     129      PYPG     H3X      HAL2     0.900000E-01   1.00800           0   0.00000     -0.301140E-02
     16077 MEMB     129      PYPG     H3Y      HAL2     0.900000E-01   1.00800           0   0.00000     -0.301140E-02
     16078 MEMB     129      PYPG     C34      CTL2    -0.180000       12.0110           0   0.00000     -0.301140E-02
     16079 MEMB     129      PYPG     H4X      HAL2     0.900000E-01   1.00800           0   0.00000     -0.301140E-02
     16080 MEMB     129      PYPG     H4Y      HAL2     0.900000E-01   1.00800           0   0.00000     -0.301140E-02
     16081 MEMB     129      PYPG     C35      CTL2    -0.180000       12.0110           0   0.00000     -0.301140E-02
     16082 MEMB     129      PYPG     H5X      HAL2     0.900000E-01   1.00800           0   0.00000     -0.301140E-02
     16083 MEMB     129      PYPG     H5Y      HAL2     0.900000E-01   1.00800           0   0.00000     -0.301140E-02
     16084 MEMB     129      PYPG     C36      CTL2    -0.180000       12.0110           0   0.00000     -0.301140E-02
     16085 MEMB     129      PYPG     H6X      HAL2     0.900000E-01   1.00800           0   0.00000     -0.301140E-02
     16086 MEMB     129      PYPG     H6Y      HAL2     0.900000E-01   1.00800           0   0.00000     -0.301140E-02
     16087 MEMB     129      PYPG     C37      CTL2    -0.180000       12.0110           0   0.00000     -0.301140E-02
     16088 MEMB     129      PYPG     H7X      HAL2     0.900000E-01   1.00800           0   0.00000     -0.301140E-02
     16089 MEMB     129      PYPG     H7Y      HAL2     0.900000E-01   1.00800           0   0.00000     -0.301140E-02
     16090 MEMB     129      PYPG     C38      CTL2    -0.180000       12.0110           0   0.00000     -0.301140E-02
     16091 MEMB     129      PYPG     H8X      HAL2     0.900000E-01   1.00800           0   0.00000     -0.301140E-02
     16092 MEMB     129      PYPG     H8Y      HAL2     0.900000E-01   1.00800           0   0.00000     -0.301140E-02
     16093 MEMB     129      PYPG     C39      CTL2    -0.180000       12.0110           0   0.00000     -0.301140E-02
     16094 MEMB     129      PYPG     H9X      HAL2     0.900000E-01   1.00800           0   0.00000     -0.301140E-02
     16095 MEMB     129      PYPG     H9Y      HAL2     0.900000E-01   1.00800           0   0.00000     -0.301140E-02
     16096 MEMB     129      PYPG     C310     CTL2    -0.180000       12.0110           0   0.00000     -0.301140E-02
     16097 MEMB     129      PYPG     H10X     HAL2     0.900000E-01   1.00800           0   0.00000     -0.301140E-02
     16098 MEMB     129      PYPG     H10Y     HAL2     0.900000E-01   1.00800           0   0.00000     -0.301140E-02
     16099 MEMB     129      PYPG     C311     CTL2    -0.180000       12.0110           0   0.00000     -0.301140E-02
     16100 MEMB     129      PYPG     H11X     HAL2     0.900000E-01   1.00800           0   0.00000     -0.301140E-02
     16101 MEMB     129      PYPG     H11Y     HAL2     0.900000E-01   1.00800           0   0.00000     -0.301140E-02
     16102 MEMB     129      PYPG     C312     CTL2    -0.180000       12.0110           0   0.00000     -0.301140E-02
     16103 MEMB     129      PYPG     H12X     HAL2     0.900000E-01   1.00800           0   0.00000     -0.301140E-02
     16104 MEMB     129      PYPG     H12Y     HAL2     0.900000E-01   1.00800           0   0.00000     -0.301140E-02
     16105 MEMB     129      PYPG     C313     CTL2    -0.180000       12.0110           0   0.00000     -0.301140E-02
     16106 MEMB     129      PYPG     H13X     HAL2     0.900000E-01   1.00800           0   0.00000     -0.301140E-02
     16107 MEMB     129      PYPG     H13Y     HAL2     0.900000E-01   1.00800           0   0.00000     -0.301140E-02
     16108 MEMB     129      PYPG     C314     CTL2    -0.180000       12.0110           0   0.00000     -0.301140E-02
     16109 MEMB     129      PYPG     H14X     HAL2     0.900000E-01   1.00800           0   0.00000     -0.301140E-02
     16110 MEMB     129      PYPG     H14Y     HAL2     0.900000E-01   1.00800           0   0.00000     -0.301140E-02
     16111 MEMB     129      PYPG     C315     CTL2    -0.180000       12.0110           0   0.00000     -0.301140E-02
     16112 MEMB     129      PYPG     H15X     HAL2     0.900000E-01   1.00800           0   0.00000     -0.301140E-02
     16113 MEMB     129      PYPG     H15Y     HAL2     0.900000E-01   1.00800           0   0.00000     -0.301140E-02
     16114 MEMB     129      PYPG     C316     CTL3    -0.270000       12.0110           0   0.00000     -0.301140E-02
     16115 MEMB     129      PYPG     H16X     HAL3     0.900000E-01   1.00800           0   0.00000     -0.301140E-02
     16116 MEMB     129      PYPG     H16Y     HAL3     0.900000E-01   1.00800           0   0.00000     -0.301140E-02
     16117 MEMB     129      PYPG     H16Z     HAL3     0.900000E-01   1.00800           0   0.00000     -0.301140E-02
     16118 MEMB     130      PMPE     N        NH3L    -0.300000       14.0070           0   0.00000     -0.301140E-02
     16119 MEMB     130      PMPE     HN1      HCL      0.330000       1.00800           0   0.00000     -0.301140E-02
     16120 MEMB     130      PMPE     HN2      HCL      0.330000       1.00800           0   0.00000     -0.301140E-02
     16121 MEMB     130      PMPE     HN3      HCL      0.330000       1.00800           0   0.00000     -0.301140E-02
     16122 MEMB     130      PMPE     C12      CTL2     0.130000       12.0110           0   0.00000     -0.301140E-02
     16123 MEMB     130      PMPE     H12A     HAL2     0.900000E-01   1.00800           0   0.00000     -0.301140E-02
     16124 MEMB     130      PMPE     H12B     HAL2     0.900000E-01   1.00800           0   0.00000     -0.301140E-02
     16125 MEMB     130      PMPE     C11      CTL2    -0.800000E-01   12.0110           0   0.00000     -0.301140E-02
     16126 MEMB     130      PMPE     H11A     HAL2     0.900000E-01   1.00800           0   0.00000     -0.301140E-02
     16127 MEMB     130      PMPE     H11B     HAL2     0.900000E-01   1.00800           0   0.00000     -0.301140E-02
     16128 MEMB     130      PMPE     P        PL        1.50000       30.9740           0   0.00000     -0.301140E-02
     16129 MEMB     130      PMPE     O13      O2L     -0.780000       15.9994           0   0.00000     -0.301140E-02
     16130 MEMB     130      PMPE     O14      O2L     -0.780000       15.9994           0   0.00000     -0.301140E-02
     16131 MEMB     130      PMPE     O11      OSLP    -0.570000       15.9994           0   0.00000     -0.301140E-02
     16132 MEMB     130      PMPE     O12      OSLP    -0.570000       15.9994           0   0.00000     -0.301140E-02
     16133 MEMB     130      PMPE     C1       CTL2    -0.800000E-01   12.0110           0   0.00000     -0.301140E-02
     16134 MEMB     130      PMPE     HA       HAL2     0.900000E-01   1.00800           0   0.00000     -0.301140E-02
     16135 MEMB     130      PMPE     HB       HAL2     0.900000E-01   1.00800           0   0.00000     -0.301140E-02
     16136 MEMB     130      PMPE     C2       CTL1     0.170000       12.0110           0   0.00000     -0.301140E-02
     16137 MEMB     130      PMPE     HS       HAL1     0.900000E-01   1.00800           0   0.00000     -0.301140E-02
     16138 MEMB     130      PMPE     O21      OSL     -0.490000       15.9994           0   0.00000     -0.301140E-02
     16139 MEMB     130      PMPE     C21      CL       0.900000       12.0110           0   0.00000     -0.301140E-02
     16140 MEMB     130      PMPE     O22      OBL     -0.630000       15.9994           0   0.00000     -0.301140E-02
     16141 MEMB     130      PMPE     C22      CTL2    -0.220000       12.0110           0   0.00000     -0.301140E-02
     16142 MEMB     130      PMPE     H2R      HAL2     0.900000E-01   1.00800           0   0.00000     -0.301140E-02
     16143 MEMB     130      PMPE     H2S      HAL2     0.900000E-01   1.00800           0   0.00000     -0.301140E-02
     16144 MEMB     130      PMPE     C3       CTL2     0.800000E-01   12.0110           0   0.00000     -0.301140E-02
     16145 MEMB     130      PMPE     HX       HAL2     0.900000E-01   1.00800           0   0.00000     -0.301140E-02
     16146 MEMB     130      PMPE     HY       HAL2     0.900000E-01   1.00800           0   0.00000     -0.301140E-02
     16147 MEMB     130      PMPE     O31      OSL     -0.490000       15.9994           0   0.00000     -0.301140E-02
     16148 MEMB     130      PMPE     C31      CL       0.900000       12.0110           0   0.00000     -0.301140E-02
     16149 MEMB     130      PMPE     O32      OBL     -0.630000       15.9994           0   0.00000     -0.301140E-02
     16150 MEMB     130      PMPE     C32      CTL2    -0.220000       12.0110           0   0.00000     -0.301140E-02
     16151 MEMB     130      PMPE     H2X      HAL2     0.900000E-01   1.00800           0   0.00000     -0.301140E-02
     16152 MEMB     130      PMPE     H2Y      HAL2     0.900000E-01   1.00800           0   0.00000     -0.301140E-02
     16153 MEMB     130      PMPE     C23      CTL2    -0.180000       12.0110           0   0.00000     -0.301140E-02
     16154 MEMB     130      PMPE     H3R      HAL2     0.900000E-01   1.00800           0   0.00000     -0.301140E-02
     16155 MEMB     130      PMPE     H3S      HAL2     0.900000E-01   1.00800           0   0.00000     -0.301140E-02
     16156 MEMB     130      PMPE     C24      CTL2    -0.180000       12.0110           0   0.00000     -0.301140E-02
     16157 MEMB     130      PMPE     H4R      HAL2     0.900000E-01   1.00800           0   0.00000     -0.301140E-02
     16158 MEMB     130      PMPE     H4S      HAL2     0.900000E-01   1.00800           0   0.00000     -0.301140E-02
     16159 MEMB     130      PMPE     C25      CTL2    -0.180000       12.0110           0   0.00000     -0.301140E-02
     16160 MEMB     130      PMPE     H5R      HAL2     0.900000E-01   1.00800           0   0.00000     -0.301140E-02
     16161 MEMB     130      PMPE     H5S      HAL2     0.900000E-01   1.00800           0   0.00000     -0.301140E-02
     16162 MEMB     130      PMPE     C26      CTL2    -0.180000       12.0110           0   0.00000     -0.301140E-02
     16163 MEMB     130      PMPE     H6R      HAL2     0.900000E-01   1.00800           0   0.00000     -0.301140E-02
     16164 MEMB     130      PMPE     H6S      HAL2     0.900000E-01   1.00800           0   0.00000     -0.301140E-02
     16165 MEMB     130      PMPE     C27      CTL2    -0.180000       12.0110           0   0.00000     -0.301140E-02
     16166 MEMB     130      PMPE     H7R      HAL2     0.900000E-01   1.00800           0   0.00000     -0.301140E-02
     16167 MEMB     130      PMPE     H7S      HAL2     0.900000E-01   1.00800           0   0.00000     -0.301140E-02
     16168 MEMB     130      PMPE     C28      CTL2    -0.180000       12.0110           0   0.00000     -0.301140E-02
     16169 MEMB     130      PMPE     H8R      HAL2     0.900000E-01   1.00800           0   0.00000     -0.301140E-02
     16170 MEMB     130      PMPE     H8S      HAL2     0.900000E-01   1.00800           0   0.00000     -0.301140E-02
     16171 MEMB     130      PMPE     C29      CG3RC1  -0.900000E-01   12.0110           0   0.00000     -0.301140E-02
     16172 MEMB     130      PMPE     H9R      HGA1     0.900000E-01   1.00800           0   0.00000     -0.301140E-02
     16173 MEMB     130      PMPE     C217     CG3C31  -0.180000       12.0110           0   0.00000     -0.301140E-02
     16174 MEMB     130      PMPE     H17R     HGA2     0.900000E-01   1.00800           0   0.00000     -0.301140E-02
     16175 MEMB     130      PMPE     H17S     HGA2     0.900000E-01   1.00800           0   0.00000     -0.301140E-02
     16176 MEMB     130      PMPE     C210     CG3RC1  -0.900000E-01   12.0110           0   0.00000     -0.301140E-02
     16177 MEMB     130      PMPE     H10R     HGA1     0.900000E-01   1.00800           0   0.00000     -0.301140E-02
     16178 MEMB     130      PMPE     C211     CTL2    -0.180000       12.0110           0   0.00000     -0.301140E-02
     16179 MEMB     130      PMPE     H11R     HAL2     0.900000E-01   1.00800           0   0.00000     -0.301140E-02
     16180 MEMB     130      PMPE     H11S     HAL2     0.900000E-01   1.00800           0   0.00000     -0.301140E-02
     16181 MEMB     130      PMPE     C212     CTL2    -0.180000       12.0110           0   0.00000     -0.301140E-02
     16182 MEMB     130      PMPE     H12R     HAL2     0.900000E-01   1.00800           0   0.00000     -0.301140E-02
     16183 MEMB     130      PMPE     H12S     HAL2     0.900000E-01   1.00800           0   0.00000     -0.301140E-02
     16184 MEMB     130      PMPE     C213     CTL2    -0.180000       12.0110           0   0.00000     -0.301140E-02
     16185 MEMB     130      PMPE     H13R     HAL2     0.900000E-01   1.00800           0   0.00000     -0.301140E-02
     16186 MEMB     130      PMPE     H13S     HAL2     0.900000E-01   1.00800           0   0.00000     -0.301140E-02
     16187 MEMB     130      PMPE     C214     CTL2    -0.180000       12.0110           0   0.00000     -0.301140E-02
     16188 MEMB     130      PMPE     H14R     HAL2     0.900000E-01   1.00800           0   0.00000     -0.301140E-02
     16189 MEMB     130      PMPE     H14S     HAL2     0.900000E-01   1.00800           0   0.00000     -0.301140E-02
     16190 MEMB     130      PMPE     C215     CTL2    -0.180000       12.0110           0   0.00000     -0.301140E-02
     16191 MEMB     130      PMPE     H15R     HAL2     0.900000E-01   1.00800           0   0.00000     -0.301140E-02
     16192 MEMB     130      PMPE     H15S     HAL2     0.900000E-01   1.00800           0   0.00000     -0.301140E-02
     16193 MEMB     130      PMPE     C216     CTL3    -0.270000       12.0110           0   0.00000     -0.301140E-02
     16194 MEMB     130      PMPE     H16R     HAL3     0.900000E-01   1.00800           0   0.00000     -0.301140E-02
     16195 MEMB     130      PMPE     H16S     HAL3     0.900000E-01   1.00800           0   0.00000     -0.301140E-02
     16196 MEMB     130      PMPE     H16T     HAL3     0.900000E-01   1.00800           0   0.00000     -0.301140E-02
     16197 MEMB     130      PMPE     C33      CTL2    -0.180000       12.0110           0   0.00000     -0.301140E-02
     16198 MEMB     130      PMPE     H3X      HAL2     0.900000E-01   1.00800           0   0.00000     -0.301140E-02
     16199 MEMB     130      PMPE     H3Y      HAL2     0.900000E-01   1.00800           0   0.00000     -0.301140E-02
     16200 MEMB     130      PMPE     C34      CTL2    -0.180000       12.0110           0   0.00000     -0.301140E-02
     16201 MEMB     130      PMPE     H4X      HAL2     0.900000E-01   1.00800           0   0.00000     -0.301140E-02
     16202 MEMB     130      PMPE     H4Y      HAL2     0.900000E-01   1.00800           0   0.00000     -0.301140E-02
     16203 MEMB     130      PMPE     C35      CTL2    -0.180000       12.0110           0   0.00000     -0.301140E-02
     16204 MEMB     130      PMPE     H5X      HAL2     0.900000E-01   1.00800           0   0.00000     -0.301140E-02
     16205 MEMB     130      PMPE     H5Y      HAL2     0.900000E-01   1.00800           0   0.00000     -0.301140E-02
     16206 MEMB     130      PMPE     C36      CTL2    -0.180000       12.0110           0   0.00000     -0.301140E-02
     16207 MEMB     130      PMPE     H6X      HAL2     0.900000E-01   1.00800           0   0.00000     -0.301140E-02
     16208 MEMB     130      PMPE     H6Y      HAL2     0.900000E-01   1.00800           0   0.00000     -0.301140E-02
     16209 MEMB     130      PMPE     C37      CTL2    -0.180000       12.0110           0   0.00000     -0.301140E-02
     16210 MEMB     130      PMPE     H7X      HAL2     0.900000E-01   1.00800           0   0.00000     -0.301140E-02
     16211 MEMB     130      PMPE     H7Y      HAL2     0.900000E-01   1.00800           0   0.00000     -0.301140E-02
     16212 MEMB     130      PMPE     C38      CTL2    -0.180000       12.0110           0   0.00000     -0.301140E-02
     16213 MEMB     130      PMPE     H8X      HAL2     0.900000E-01   1.00800           0   0.00000     -0.301140E-02
     16214 MEMB     130      PMPE     H8Y      HAL2     0.900000E-01   1.00800           0   0.00000     -0.301140E-02
     16215 MEMB     130      PMPE     C39      CTL2    -0.180000       12.0110           0   0.00000     -0.301140E-02
     16216 MEMB     130      PMPE     H9X      HAL2     0.900000E-01   1.00800           0   0.00000     -0.301140E-02
     16217 MEMB     130      PMPE     H9Y      HAL2     0.900000E-01   1.00800           0   0.00000     -0.301140E-02
     16218 MEMB     130      PMPE     C310     CTL2    -0.180000       12.0110           0   0.00000     -0.301140E-02
     16219 MEMB     130      PMPE     H10X     HAL2     0.900000E-01   1.00800           0   0.00000     -0.301140E-02
     16220 MEMB     130      PMPE     H10Y     HAL2     0.900000E-01   1.00800           0   0.00000     -0.301140E-02
     16221 MEMB     130      PMPE     C311     CTL2    -0.180000       12.0110           0   0.00000     -0.301140E-02
     16222 MEMB     130      PMPE     H11X     HAL2     0.900000E-01   1.00800           0   0.00000     -0.301140E-02
     16223 MEMB     130      PMPE     H11Y     HAL2     0.900000E-01   1.00800           0   0.00000     -0.301140E-02
     16224 MEMB     130      PMPE     C312     CTL2    -0.180000       12.0110           0   0.00000     -0.301140E-02
     16225 MEMB     130      PMPE     H12X     HAL2     0.900000E-01   1.00800           0   0.00000     -0.301140E-02
     16226 MEMB     130      PMPE     H12Y     HAL2     0.900000E-01   1.00800           0   0.00000     -0.301140E-02
     16227 MEMB     130      PMPE     C313     CTL2    -0.180000       12.0110           0   0.00000     -0.301140E-02
     16228 MEMB     130      PMPE     H13X     HAL2     0.900000E-01   1.00800           0   0.00000     -0.301140E-02
     16229 MEMB     130      PMPE     H13Y     HAL2     0.900000E-01   1.00800           0   0.00000     -0.301140E-02
     16230 MEMB     130      PMPE     C314     CTL2    -0.180000       12.0110           0   0.00000     -0.301140E-02
     16231 MEMB     130      PMPE     H14X     HAL2     0.900000E-01   1.00800           0   0.00000     -0.301140E-02
     16232 MEMB     130      PMPE     H14Y     HAL2     0.900000E-01   1.00800           0   0.00000     -0.301140E-02
     16233 MEMB     130      PMPE     C315     CTL2    -0.180000       12.0110           0   0.00000     -0.301140E-02
     16234 MEMB     130      PMPE     H15X     HAL2     0.900000E-01   1.00800           0   0.00000     -0.301140E-02
     16235 MEMB     130      PMPE     H15Y     HAL2     0.900000E-01   1.00800           0   0.00000     -0.301140E-02
     16236 MEMB     130      PMPE     C316     CTL3    -0.270000       12.0110           0   0.00000     -0.301140E-02
     16237 MEMB     130      PMPE     H16X     HAL3     0.900000E-01   1.00800           0   0.00000     -0.301140E-02
     16238 MEMB     130      PMPE     H16Y     HAL3     0.900000E-01   1.00800           0   0.00000     -0.301140E-02
     16239 MEMB     130      PMPE     H16Z     HAL3     0.900000E-01   1.00800           0   0.00000     -0.301140E-02
     16240 MEMB     131      QMPE     N        NH3L    -0.300000       14.0070           0   0.00000     -0.301140E-02
     16241 MEMB     131      QMPE     HN1      HCL      0.330000       1.00800           0   0.00000     -0.301140E-02
     16242 MEMB     131      QMPE     HN2      HCL      0.330000       1.00800           0   0.00000     -0.301140E-02
     16243 MEMB     131      QMPE     HN3      HCL      0.330000       1.00800           0   0.00000     -0.301140E-02
     16244 MEMB     131      QMPE     C12      CTL2     0.130000       12.0110           0   0.00000     -0.301140E-02
     16245 MEMB     131      QMPE     H12A     HAL2     0.900000E-01   1.00800           0   0.00000     -0.301140E-02
     16246 MEMB     131      QMPE     H12B     HAL2     0.900000E-01   1.00800           0   0.00000     -0.301140E-02
     16247 MEMB     131      QMPE     C11      CTL2    -0.800000E-01   12.0110           0   0.00000     -0.301140E-02
     16248 MEMB     131      QMPE     H11A     HAL2     0.900000E-01   1.00800           0   0.00000     -0.301140E-02
     16249 MEMB     131      QMPE     H11B     HAL2     0.900000E-01   1.00800           0   0.00000     -0.301140E-02
     16250 MEMB     131      QMPE     P        PL        1.50000       30.9740           0   0.00000     -0.301140E-02
     16251 MEMB     131      QMPE     O13      O2L     -0.780000       15.9994           0   0.00000     -0.301140E-02
     16252 MEMB     131      QMPE     O14      O2L     -0.780000       15.9994           0   0.00000     -0.301140E-02
     16253 MEMB     131      QMPE     O11      OSLP    -0.570000       15.9994           0   0.00000     -0.301140E-02
     16254 MEMB     131      QMPE     O12      OSLP    -0.570000       15.9994           0   0.00000     -0.301140E-02
     16255 MEMB     131      QMPE     C1       CTL2    -0.800000E-01   12.0110           0   0.00000     -0.301140E-02
     16256 MEMB     131      QMPE     HA       HAL2     0.900000E-01   1.00800           0   0.00000     -0.301140E-02
     16257 MEMB     131      QMPE     HB       HAL2     0.900000E-01   1.00800           0   0.00000     -0.301140E-02
     16258 MEMB     131      QMPE     C2       CTL1     0.170000       12.0110           0   0.00000     -0.301140E-02
     16259 MEMB     131      QMPE     HS       HAL1     0.900000E-01   1.00800           0   0.00000     -0.301140E-02
     16260 MEMB     131      QMPE     O21      OSL     -0.490000       15.9994           0   0.00000     -0.301140E-02
     16261 MEMB     131      QMPE     C21      CL       0.900000       12.0110           0   0.00000     -0.301140E-02
     16262 MEMB     131      QMPE     O22      OBL     -0.630000       15.9994           0   0.00000     -0.301140E-02
     16263 MEMB     131      QMPE     C22      CTL2    -0.220000       12.0110           0   0.00000     -0.301140E-02
     16264 MEMB     131      QMPE     H2R      HAL2     0.900000E-01   1.00800           0   0.00000     -0.301140E-02
     16265 MEMB     131      QMPE     H2S      HAL2     0.900000E-01   1.00800           0   0.00000     -0.301140E-02
     16266 MEMB     131      QMPE     C3       CTL2     0.800000E-01   12.0110           0   0.00000     -0.301140E-02
     16267 MEMB     131      QMPE     HX       HAL2     0.900000E-01   1.00800           0   0.00000     -0.301140E-02
     16268 MEMB     131      QMPE     HY       HAL2     0.900000E-01   1.00800           0   0.00000     -0.301140E-02
     16269 MEMB     131      QMPE     O31      OSL     -0.490000       15.9994           0   0.00000     -0.301140E-02
     16270 MEMB     131      QMPE     C31      CL       0.900000       12.0110           0   0.00000     -0.301140E-02
     16271 MEMB     131      QMPE     O32      OBL     -0.630000       15.9994           0   0.00000     -0.301140E-02
     16272 MEMB     131      QMPE     C32      CTL2    -0.220000       12.0110           0   0.00000     -0.301140E-02
     16273 MEMB     131      QMPE     H2X      HAL2     0.900000E-01   1.00800           0   0.00000     -0.301140E-02
     16274 MEMB     131      QMPE     H2Y      HAL2     0.900000E-01   1.00800           0   0.00000     -0.301140E-02
     16275 MEMB     131      QMPE     C23      CTL2    -0.180000       12.0110           0   0.00000     -0.301140E-02
     16276 MEMB     131      QMPE     H3R      HAL2     0.900000E-01   1.00800           0   0.00000     -0.301140E-02
     16277 MEMB     131      QMPE     H3S      HAL2     0.900000E-01   1.00800           0   0.00000     -0.301140E-02
     16278 MEMB     131      QMPE     C24      CTL2    -0.180000       12.0110           0   0.00000     -0.301140E-02
     16279 MEMB     131      QMPE     H4R      HAL2     0.900000E-01   1.00800           0   0.00000     -0.301140E-02
     16280 MEMB     131      QMPE     H4S      HAL2     0.900000E-01   1.00800           0   0.00000     -0.301140E-02
     16281 MEMB     131      QMPE     C25      CTL2    -0.180000       12.0110           0   0.00000     -0.301140E-02
     16282 MEMB     131      QMPE     H5R      HAL2     0.900000E-01   1.00800           0   0.00000     -0.301140E-02
     16283 MEMB     131      QMPE     H5S      HAL2     0.900000E-01   1.00800           0   0.00000     -0.301140E-02
     16284 MEMB     131      QMPE     C26      CTL2    -0.180000       12.0110           0   0.00000     -0.301140E-02
     16285 MEMB     131      QMPE     H6R      HAL2     0.900000E-01   1.00800           0   0.00000     -0.301140E-02
     16286 MEMB     131      QMPE     H6S      HAL2     0.900000E-01   1.00800           0   0.00000     -0.301140E-02
     16287 MEMB     131      QMPE     C27      CTL2    -0.180000       12.0110           0   0.00000     -0.301140E-02
     16288 MEMB     131      QMPE     H7R      HAL2     0.900000E-01   1.00800           0   0.00000     -0.301140E-02
     16289 MEMB     131      QMPE     H7S      HAL2     0.900000E-01   1.00800           0   0.00000     -0.301140E-02
     16290 MEMB     131      QMPE     C28      CTL2    -0.180000       12.0110           0   0.00000     -0.301140E-02
     16291 MEMB     131      QMPE     H8R      HAL2     0.900000E-01   1.00800           0   0.00000     -0.301140E-02
     16292 MEMB     131      QMPE     H8S      HAL2     0.900000E-01   1.00800           0   0.00000     -0.301140E-02
     16293 MEMB     131      QMPE     C29      CG3RC1  -0.900000E-01   12.0110           0   0.00000     -0.301140E-02
     16294 MEMB     131      QMPE     H9R      HGA1     0.900000E-01   1.00800           0   0.00000     -0.301140E-02
     16295 MEMB     131      QMPE     C217     CG3C31  -0.180000       12.0110           0   0.00000     -0.301140E-02
     16296 MEMB     131      QMPE     H17R     HGA2     0.900000E-01   1.00800           0   0.00000     -0.301140E-02
     16297 MEMB     131      QMPE     H17S     HGA2     0.900000E-01   1.00800           0   0.00000     -0.301140E-02
     16298 MEMB     131      QMPE     C210     CG3RC1  -0.900000E-01   12.0110           0   0.00000     -0.301140E-02
     16299 MEMB     131      QMPE     H10R     HGA1     0.900000E-01   1.00800           0   0.00000     -0.301140E-02
     16300 MEMB     131      QMPE     C211     CTL2    -0.180000       12.0110           0   0.00000     -0.301140E-02
     16301 MEMB     131      QMPE     H11R     HAL2     0.900000E-01   1.00800           0   0.00000     -0.301140E-02
     16302 MEMB     131      QMPE     H11S     HAL2     0.900000E-01   1.00800           0   0.00000     -0.301140E-02
     16303 MEMB     131      QMPE     C212     CTL2    -0.180000       12.0110           0   0.00000     -0.301140E-02
     16304 MEMB     131      QMPE     H12R     HAL2     0.900000E-01   1.00800           0   0.00000     -0.301140E-02
     16305 MEMB     131      QMPE     H12S     HAL2     0.900000E-01   1.00800           0   0.00000     -0.301140E-02
     16306 MEMB     131      QMPE     C213     CTL2    -0.180000       12.0110           0   0.00000     -0.301140E-02
     16307 MEMB     131      QMPE     H13R     HAL2     0.900000E-01   1.00800           0   0.00000     -0.301140E-02
     16308 MEMB     131      QMPE     H13S     HAL2     0.900000E-01   1.00800           0   0.00000     -0.301140E-02
     16309 MEMB     131      QMPE     C214     CTL2    -0.180000       12.0110           0   0.00000     -0.301140E-02
     16310 MEMB     131      QMPE     H14R     HAL2     0.900000E-01   1.00800           0   0.00000     -0.301140E-02
     16311 MEMB     131      QMPE     H14S     HAL2     0.900000E-01   1.00800           0   0.00000     -0.301140E-02
     16312 MEMB     131      QMPE     C215     CTL2    -0.180000       12.0110           0   0.00000     -0.301140E-02
     16313 MEMB     131      QMPE     H15R     HAL2     0.900000E-01   1.00800           0   0.00000     -0.301140E-02
     16314 MEMB     131      QMPE     H15S     HAL2     0.900000E-01   1.00800           0   0.00000     -0.301140E-02
     16315 MEMB     131      QMPE     C216     CTL3    -0.270000       12.0110           0   0.00000     -0.301140E-02
     16316 MEMB     131      QMPE     H16R     HAL3     0.900000E-01   1.00800           0   0.00000     -0.301140E-02
     16317 MEMB     131      QMPE     H16S     HAL3     0.900000E-01   1.00800           0   0.00000     -0.301140E-02
     16318 MEMB     131      QMPE     H16T     HAL3     0.900000E-01   1.00800           0   0.00000     -0.301140E-02
     16319 MEMB     131      QMPE     C33      CTL2    -0.180000       12.0110           0   0.00000     -0.301140E-02
     16320 MEMB     131      QMPE     H3X      HAL2     0.900000E-01   1.00800           0   0.00000     -0.301140E-02
     16321 MEMB     131      QMPE     H3Y      HAL2     0.900000E-01   1.00800           0   0.00000     -0.301140E-02
     16322 MEMB     131      QMPE     C34      CTL2    -0.180000       12.0110           0   0.00000     -0.301140E-02
     16323 MEMB     131      QMPE     H4X      HAL2     0.900000E-01   1.00800           0   0.00000     -0.301140E-02
     16324 MEMB     131      QMPE     H4Y      HAL2     0.900000E-01   1.00800           0   0.00000     -0.301140E-02
     16325 MEMB     131      QMPE     C35      CTL2    -0.180000       12.0110           0   0.00000     -0.301140E-02
     16326 MEMB     131      QMPE     H5X      HAL2     0.900000E-01   1.00800           0   0.00000     -0.301140E-02
     16327 MEMB     131      QMPE     H5Y      HAL2     0.900000E-01   1.00800           0   0.00000     -0.301140E-02
     16328 MEMB     131      QMPE     C36      CTL2    -0.180000       12.0110           0   0.00000     -0.301140E-02
     16329 MEMB     131      QMPE     H6X      HAL2     0.900000E-01   1.00800           0   0.00000     -0.301140E-02
     16330 MEMB     131      QMPE     H6Y      HAL2     0.900000E-01   1.00800           0   0.00000     -0.301140E-02
     16331 MEMB     131      QMPE     C37      CTL2    -0.180000       12.0110           0   0.00000     -0.301140E-02
     16332 MEMB     131      QMPE     H7X      HAL2     0.900000E-01   1.00800           0   0.00000     -0.301140E-02
     16333 MEMB     131      QMPE     H7Y      HAL2     0.900000E-01   1.00800           0   0.00000     -0.301140E-02
     16334 MEMB     131      QMPE     C38      CTL2    -0.180000       12.0110           0   0.00000     -0.301140E-02
     16335 MEMB     131      QMPE     H8X      HAL2     0.900000E-01   1.00800           0   0.00000     -0.301140E-02
     16336 MEMB     131      QMPE     H8Y      HAL2     0.900000E-01   1.00800           0   0.00000     -0.301140E-02
     16337 MEMB     131      QMPE     C39      CTL2    -0.180000       12.0110           0   0.00000     -0.301140E-02
     16338 MEMB     131      QMPE     H9X      HAL2     0.900000E-01   1.00800           0   0.00000     -0.301140E-02
     16339 MEMB     131      QMPE     H9Y      HAL2     0.900000E-01   1.00800           0   0.00000     -0.301140E-02
     16340 MEMB     131      QMPE     C310     CTL2    -0.180000       12.0110           0   0.00000     -0.301140E-02
     16341 MEMB     131      QMPE     H10X     HAL2     0.900000E-01   1.00800           0   0.00000     -0.301140E-02
     16342 MEMB     131      QMPE     H10Y     HAL2     0.900000E-01   1.00800           0   0.00000     -0.301140E-02
     16343 MEMB     131      QMPE     C311     CTL2    -0.180000       12.0110           0   0.00000     -0.301140E-02
     16344 MEMB     131      QMPE     H11X     HAL2     0.900000E-01   1.00800           0   0.00000     -0.301140E-02
     16345 MEMB     131      QMPE     H11Y     HAL2     0.900000E-01   1.00800           0   0.00000     -0.301140E-02
     16346 MEMB     131      QMPE     C312     CTL2    -0.180000       12.0110           0   0.00000     -0.301140E-02
     16347 MEMB     131      QMPE     H12X     HAL2     0.900000E-01   1.00800           0   0.00000     -0.301140E-02
     16348 MEMB     131      QMPE     H12Y     HAL2     0.900000E-01   1.00800           0   0.00000     -0.301140E-02
     16349 MEMB     131      QMPE     C313     CTL2    -0.180000       12.0110           0   0.00000     -0.301140E-02
     16350 MEMB     131      QMPE     H13X     HAL2     0.900000E-01   1.00800           0   0.00000     -0.301140E-02
     16351 MEMB     131      QMPE     H13Y     HAL2     0.900000E-01   1.00800           0   0.00000     -0.301140E-02
     16352 MEMB     131      QMPE     C314     CTL2    -0.180000       12.0110           0   0.00000     -0.301140E-02
     16353 MEMB     131      QMPE     H14X     HAL2     0.900000E-01   1.00800           0   0.00000     -0.301140E-02
     16354 MEMB     131      QMPE     H14Y     HAL2     0.900000E-01   1.00800           0   0.00000     -0.301140E-02
     16355 MEMB     131      QMPE     C315     CTL3    -0.270000       12.0110           0   0.00000     -0.301140E-02
     16356 MEMB     131      QMPE     H15X     HAL3     0.900000E-01   1.00800           0   0.00000     -0.301140E-02
     16357 MEMB     131      QMPE     H15Y     HAL3     0.900000E-01   1.00800           0   0.00000     -0.301140E-02
     16358 MEMB     131      QMPE     H15Z     HAL3     0.900000E-01   1.00800           0   0.00000     -0.301140E-02
     16359 MEMB     132      PMPE     N        NH3L    -0.300000       14.0070           0   0.00000     -0.301140E-02
     16360 MEMB     132      PMPE     HN1      HCL      0.330000       1.00800           0   0.00000     -0.301140E-02
     16361 MEMB     132      PMPE     HN2      HCL      0.330000       1.00800           0   0.00000     -0.301140E-02
     16362 MEMB     132      PMPE     HN3      HCL      0.330000       1.00800           0   0.00000     -0.301140E-02
     16363 MEMB     132      PMPE     C12      CTL2     0.130000       12.0110           0   0.00000     -0.301140E-02
     16364 MEMB     132      PMPE     H12A     HAL2     0.900000E-01   1.00800           0   0.00000     -0.301140E-02
     16365 MEMB     132      PMPE     H12B     HAL2     0.900000E-01   1.00800           0   0.00000     -0.301140E-02
     16366 MEMB     132      PMPE     C11      CTL2    -0.800000E-01   12.0110           0   0.00000     -0.301140E-02
     16367 MEMB     132      PMPE     H11A     HAL2     0.900000E-01   1.00800           0   0.00000     -0.301140E-02
     16368 MEMB     132      PMPE     H11B     HAL2     0.900000E-01   1.00800           0   0.00000     -0.301140E-02
     16369 MEMB     132      PMPE     P        PL        1.50000       30.9740           0   0.00000     -0.301140E-02
     16370 MEMB     132      PMPE     O13      O2L     -0.780000       15.9994           0   0.00000     -0.301140E-02
     16371 MEMB     132      PMPE     O14      O2L     -0.780000       15.9994           0   0.00000     -0.301140E-02
     16372 MEMB     132      PMPE     O11      OSLP    -0.570000       15.9994           0   0.00000     -0.301140E-02
     16373 MEMB     132      PMPE     O12      OSLP    -0.570000       15.9994           0   0.00000     -0.301140E-02
     16374 MEMB     132      PMPE     C1       CTL2    -0.800000E-01   12.0110           0   0.00000     -0.301140E-02
     16375 MEMB     132      PMPE     HA       HAL2     0.900000E-01   1.00800           0   0.00000     -0.301140E-02
     16376 MEMB     132      PMPE     HB       HAL2     0.900000E-01   1.00800           0   0.00000     -0.301140E-02
     16377 MEMB     132      PMPE     C2       CTL1     0.170000       12.0110           0   0.00000     -0.301140E-02
     16378 MEMB     132      PMPE     HS       HAL1     0.900000E-01   1.00800           0   0.00000     -0.301140E-02
     16379 MEMB     132      PMPE     O21      OSL     -0.490000       15.9994           0   0.00000     -0.301140E-02
     16380 MEMB     132      PMPE     C21      CL       0.900000       12.0110           0   0.00000     -0.301140E-02
     16381 MEMB     132      PMPE     O22      OBL     -0.630000       15.9994           0   0.00000     -0.301140E-02
     16382 MEMB     132      PMPE     C22      CTL2    -0.220000       12.0110           0   0.00000     -0.301140E-02
     16383 MEMB     132      PMPE     H2R      HAL2     0.900000E-01   1.00800           0   0.00000     -0.301140E-02
     16384 MEMB     132      PMPE     H2S      HAL2     0.900000E-01   1.00800           0   0.00000     -0.301140E-02
     16385 MEMB     132      PMPE     C3       CTL2     0.800000E-01   12.0110           0   0.00000     -0.301140E-02
     16386 MEMB     132      PMPE     HX       HAL2     0.900000E-01   1.00800           0   0.00000     -0.301140E-02
     16387 MEMB     132      PMPE     HY       HAL2     0.900000E-01   1.00800           0   0.00000     -0.301140E-02
     16388 MEMB     132      PMPE     O31      OSL     -0.490000       15.9994           0   0.00000     -0.301140E-02
     16389 MEMB     132      PMPE     C31      CL       0.900000       12.0110           0   0.00000     -0.301140E-02
     16390 MEMB     132      PMPE     O32      OBL     -0.630000       15.9994           0   0.00000     -0.301140E-02
     16391 MEMB     132      PMPE     C32      CTL2    -0.220000       12.0110           0   0.00000     -0.301140E-02
     16392 MEMB     132      PMPE     H2X      HAL2     0.900000E-01   1.00800           0   0.00000     -0.301140E-02
     16393 MEMB     132      PMPE     H2Y      HAL2     0.900000E-01   1.00800           0   0.00000     -0.301140E-02
     16394 MEMB     132      PMPE     C23      CTL2    -0.180000       12.0110           0   0.00000     -0.301140E-02
     16395 MEMB     132      PMPE     H3R      HAL2     0.900000E-01   1.00800           0   0.00000     -0.301140E-02
     16396 MEMB     132      PMPE     H3S      HAL2     0.900000E-01   1.00800           0   0.00000     -0.301140E-02
     16397 MEMB     132      PMPE     C24      CTL2    -0.180000       12.0110           0   0.00000     -0.301140E-02
     16398 MEMB     132      PMPE     H4R      HAL2     0.900000E-01   1.00800           0   0.00000     -0.301140E-02
     16399 MEMB     132      PMPE     H4S      HAL2     0.900000E-01   1.00800           0   0.00000     -0.301140E-02
     16400 MEMB     132      PMPE     C25      CTL2    -0.180000       12.0110           0   0.00000     -0.301140E-02
     16401 MEMB     132      PMPE     H5R      HAL2     0.900000E-01   1.00800           0   0.00000     -0.301140E-02
     16402 MEMB     132      PMPE     H5S      HAL2     0.900000E-01   1.00800           0   0.00000     -0.301140E-02
     16403 MEMB     132      PMPE     C26      CTL2    -0.180000       12.0110           0   0.00000     -0.301140E-02
     16404 MEMB     132      PMPE     H6R      HAL2     0.900000E-01   1.00800           0   0.00000     -0.301140E-02
     16405 MEMB     132      PMPE     H6S      HAL2     0.900000E-01   1.00800           0   0.00000     -0.301140E-02
     16406 MEMB     132      PMPE     C27      CTL2    -0.180000       12.0110           0   0.00000     -0.301140E-02
     16407 MEMB     132      PMPE     H7R      HAL2     0.900000E-01   1.00800           0   0.00000     -0.301140E-02
     16408 MEMB     132      PMPE     H7S      HAL2     0.900000E-01   1.00800           0   0.00000     -0.301140E-02
     16409 MEMB     132      PMPE     C28      CTL2    -0.180000       12.0110           0   0.00000     -0.301140E-02
     16410 MEMB     132      PMPE     H8R      HAL2     0.900000E-01   1.00800           0   0.00000     -0.301140E-02
     16411 MEMB     132      PMPE     H8S      HAL2     0.900000E-01   1.00800           0   0.00000     -0.301140E-02
     16412 MEMB     132      PMPE     C29      CG3RC1  -0.900000E-01   12.0110           0   0.00000     -0.301140E-02
     16413 MEMB     132      PMPE     H9R      HGA1     0.900000E-01   1.00800           0   0.00000     -0.301140E-02
     16414 MEMB     132      PMPE     C217     CG3C31  -0.180000       12.0110           0   0.00000     -0.301140E-02
     16415 MEMB     132      PMPE     H17R     HGA2     0.900000E-01   1.00800           0   0.00000     -0.301140E-02
     16416 MEMB     132      PMPE     H17S     HGA2     0.900000E-01   1.00800           0   0.00000     -0.301140E-02
     16417 MEMB     132      PMPE     C210     CG3RC1  -0.900000E-01   12.0110           0   0.00000     -0.301140E-02
     16418 MEMB     132      PMPE     H10R     HGA1     0.900000E-01   1.00800           0   0.00000     -0.301140E-02
     16419 MEMB     132      PMPE     C211     CTL2    -0.180000       12.0110           0   0.00000     -0.301140E-02
     16420 MEMB     132      PMPE     H11R     HAL2     0.900000E-01   1.00800           0   0.00000     -0.301140E-02
     16421 MEMB     132      PMPE     H11S     HAL2     0.900000E-01   1.00800           0   0.00000     -0.301140E-02
     16422 MEMB     132      PMPE     C212     CTL2    -0.180000       12.0110           0   0.00000     -0.301140E-02
     16423 MEMB     132      PMPE     H12R     HAL2     0.900000E-01   1.00800           0   0.00000     -0.301140E-02
     16424 MEMB     132      PMPE     H12S     HAL2     0.900000E-01   1.00800           0   0.00000     -0.301140E-02
     16425 MEMB     132      PMPE     C213     CTL2    -0.180000       12.0110           0   0.00000     -0.301140E-02
     16426 MEMB     132      PMPE     H13R     HAL2     0.900000E-01   1.00800           0   0.00000     -0.301140E-02
     16427 MEMB     132      PMPE     H13S     HAL2     0.900000E-01   1.00800           0   0.00000     -0.301140E-02
     16428 MEMB     132      PMPE     C214     CTL2    -0.180000       12.0110           0   0.00000     -0.301140E-02
     16429 MEMB     132      PMPE     H14R     HAL2     0.900000E-01   1.00800           0   0.00000     -0.301140E-02
     16430 MEMB     132      PMPE     H14S     HAL2     0.900000E-01   1.00800           0   0.00000     -0.301140E-02
     16431 MEMB     132      PMPE     C215     CTL2    -0.180000       12.0110           0   0.00000     -0.301140E-02
     16432 MEMB     132      PMPE     H15R     HAL2     0.900000E-01   1.00800           0   0.00000     -0.301140E-02
     16433 MEMB     132      PMPE     H15S     HAL2     0.900000E-01   1.00800           0   0.00000     -0.301140E-02
     16434 MEMB     132      PMPE     C216     CTL3    -0.270000       12.0110           0   0.00000     -0.301140E-02
     16435 MEMB     132      PMPE     H16R     HAL3     0.900000E-01   1.00800           0   0.00000     -0.301140E-02
     16436 MEMB     132      PMPE     H16S     HAL3     0.900000E-01   1.00800           0   0.00000     -0.301140E-02
     16437 MEMB     132      PMPE     H16T     HAL3     0.900000E-01   1.00800           0   0.00000     -0.301140E-02
     16438 MEMB     132      PMPE     C33      CTL2    -0.180000       12.0110           0   0.00000     -0.301140E-02
     16439 MEMB     132      PMPE     H3X      HAL2     0.900000E-01   1.00800           0   0.00000     -0.301140E-02
     16440 MEMB     132      PMPE     H3Y      HAL2     0.900000E-01   1.00800           0   0.00000     -0.301140E-02
     16441 MEMB     132      PMPE     C34      CTL2    -0.180000       12.0110           0   0.00000     -0.301140E-02
     16442 MEMB     132      PMPE     H4X      HAL2     0.900000E-01   1.00800           0   0.00000     -0.301140E-02
     16443 MEMB     132      PMPE     H4Y      HAL2     0.900000E-01   1.00800           0   0.00000     -0.301140E-02
     16444 MEMB     132      PMPE     C35      CTL2    -0.180000       12.0110           0   0.00000     -0.301140E-02
     16445 MEMB     132      PMPE     H5X      HAL2     0.900000E-01   1.00800           0   0.00000     -0.301140E-02
     16446 MEMB     132      PMPE     H5Y      HAL2     0.900000E-01   1.00800           0   0.00000     -0.301140E-02
     16447 MEMB     132      PMPE     C36      CTL2    -0.180000       12.0110           0   0.00000     -0.301140E-02
     16448 MEMB     132      PMPE     H6X      HAL2     0.900000E-01   1.00800           0   0.00000     -0.301140E-02
     16449 MEMB     132      PMPE     H6Y      HAL2     0.900000E-01   1.00800           0   0.00000     -0.301140E-02
     16450 MEMB     132      PMPE     C37      CTL2    -0.180000       12.0110           0   0.00000     -0.301140E-02
     16451 MEMB     132      PMPE     H7X      HAL2     0.900000E-01   1.00800           0   0.00000     -0.301140E-02
     16452 MEMB     132      PMPE     H7Y      HAL2     0.900000E-01   1.00800           0   0.00000     -0.301140E-02
     16453 MEMB     132      PMPE     C38      CTL2    -0.180000       12.0110           0   0.00000     -0.301140E-02
     16454 MEMB     132      PMPE     H8X      HAL2     0.900000E-01   1.00800           0   0.00000     -0.301140E-02
     16455 MEMB     132      PMPE     H8Y      HAL2     0.900000E-01   1.00800           0   0.00000     -0.301140E-02
     16456 MEMB     132      PMPE     C39      CTL2    -0.180000       12.0110           0   0.00000     -0.301140E-02
     16457 MEMB     132      PMPE     H9X      HAL2     0.900000E-01   1.00800           0   0.00000     -0.301140E-02
     16458 MEMB     132      PMPE     H9Y      HAL2     0.900000E-01   1.00800           0   0.00000     -0.301140E-02
     16459 MEMB     132      PMPE     C310     CTL2    -0.180000       12.0110           0   0.00000     -0.301140E-02
     16460 MEMB     132      PMPE     H10X     HAL2     0.900000E-01   1.00800           0   0.00000     -0.301140E-02
     16461 MEMB     132      PMPE     H10Y     HAL2     0.900000E-01   1.00800           0   0.00000     -0.301140E-02
     16462 MEMB     132      PMPE     C311     CTL2    -0.180000       12.0110           0   0.00000     -0.301140E-02
     16463 MEMB     132      PMPE     H11X     HAL2     0.900000E-01   1.00800           0   0.00000     -0.301140E-02
     16464 MEMB     132      PMPE     H11Y     HAL2     0.900000E-01   1.00800           0   0.00000     -0.301140E-02
     16465 MEMB     132      PMPE     C312     CTL2    -0.180000       12.0110           0   0.00000     -0.301140E-02
     16466 MEMB     132      PMPE     H12X     HAL2     0.900000E-01   1.00800           0   0.00000     -0.301140E-02
     16467 MEMB     132      PMPE     H12Y     HAL2     0.900000E-01   1.00800           0   0.00000     -0.301140E-02
     16468 MEMB     132      PMPE     C313     CTL2    -0.180000       12.0110           0   0.00000     -0.301140E-02
     16469 MEMB     132      PMPE     H13X     HAL2     0.900000E-01   1.00800           0   0.00000     -0.301140E-02
     16470 MEMB     132      PMPE     H13Y     HAL2     0.900000E-01   1.00800           0   0.00000     -0.301140E-02
     16471 MEMB     132      PMPE     C314     CTL2    -0.180000       12.0110           0   0.00000     -0.301140E-02
     16472 MEMB     132      PMPE     H14X     HAL2     0.900000E-01   1.00800           0   0.00000     -0.301140E-02
     16473 MEMB     132      PMPE     H14Y     HAL2     0.900000E-01   1.00800           0   0.00000     -0.301140E-02
     16474 MEMB     132      PMPE     C315     CTL2    -0.180000       12.0110           0   0.00000     -0.301140E-02
     16475 MEMB     132      PMPE     H15X     HAL2     0.900000E-01   1.00800           0   0.00000     -0.301140E-02
     16476 MEMB     132      PMPE     H15Y     HAL2     0.900000E-01   1.00800           0   0.00000     -0.301140E-02
     16477 MEMB     132      PMPE     C316     CTL3    -0.270000       12.0110           0   0.00000     -0.301140E-02
     16478 MEMB     132      PMPE     H16X     HAL3     0.900000E-01   1.00800           0   0.00000     -0.301140E-02
     16479 MEMB     132      PMPE     H16Y     HAL3     0.900000E-01   1.00800           0   0.00000     -0.301140E-02
     16480 MEMB     132      PMPE     H16Z     HAL3     0.900000E-01   1.00800           0   0.00000     -0.301140E-02
     16481 MEMB     133      QMPE     N        NH3L    -0.300000       14.0070           0   0.00000     -0.301140E-02
     16482 MEMB     133      QMPE     HN1      HCL      0.330000       1.00800           0   0.00000     -0.301140E-02
     16483 MEMB     133      QMPE     HN2      HCL      0.330000       1.00800           0   0.00000     -0.301140E-02
     16484 MEMB     133      QMPE     HN3      HCL      0.330000       1.00800           0   0.00000     -0.301140E-02
     16485 MEMB     133      QMPE     C12      CTL2     0.130000       12.0110           0   0.00000     -0.301140E-02
     16486 MEMB     133      QMPE     H12A     HAL2     0.900000E-01   1.00800           0   0.00000     -0.301140E-02
     16487 MEMB     133      QMPE     H12B     HAL2     0.900000E-01   1.00800           0   0.00000     -0.301140E-02
     16488 MEMB     133      QMPE     C11      CTL2    -0.800000E-01   12.0110           0   0.00000     -0.301140E-02
     16489 MEMB     133      QMPE     H11A     HAL2     0.900000E-01   1.00800           0   0.00000     -0.301140E-02
     16490 MEMB     133      QMPE     H11B     HAL2     0.900000E-01   1.00800           0   0.00000     -0.301140E-02
     16491 MEMB     133      QMPE     P        PL        1.50000       30.9740           0   0.00000     -0.301140E-02
     16492 MEMB     133      QMPE     O13      O2L     -0.780000       15.9994           0   0.00000     -0.301140E-02
     16493 MEMB     133      QMPE     O14      O2L     -0.780000       15.9994           0   0.00000     -0.301140E-02
     16494 MEMB     133      QMPE     O11      OSLP    -0.570000       15.9994           0   0.00000     -0.301140E-02
     16495 MEMB     133      QMPE     O12      OSLP    -0.570000       15.9994           0   0.00000     -0.301140E-02
     16496 MEMB     133      QMPE     C1       CTL2    -0.800000E-01   12.0110           0   0.00000     -0.301140E-02
     16497 MEMB     133      QMPE     HA       HAL2     0.900000E-01   1.00800           0   0.00000     -0.301140E-02
     16498 MEMB     133      QMPE     HB       HAL2     0.900000E-01   1.00800           0   0.00000     -0.301140E-02
     16499 MEMB     133      QMPE     C2       CTL1     0.170000       12.0110           0   0.00000     -0.301140E-02
     16500 MEMB     133      QMPE     HS       HAL1     0.900000E-01   1.00800           0   0.00000     -0.301140E-02
     16501 MEMB     133      QMPE     O21      OSL     -0.490000       15.9994           0   0.00000     -0.301140E-02
     16502 MEMB     133      QMPE     C21      CL       0.900000       12.0110           0   0.00000     -0.301140E-02
     16503 MEMB     133      QMPE     O22      OBL     -0.630000       15.9994           0   0.00000     -0.301140E-02
     16504 MEMB     133      QMPE     C22      CTL2    -0.220000       12.0110           0   0.00000     -0.301140E-02
     16505 MEMB     133      QMPE     H2R      HAL2     0.900000E-01   1.00800           0   0.00000     -0.301140E-02
     16506 MEMB     133      QMPE     H2S      HAL2     0.900000E-01   1.00800           0   0.00000     -0.301140E-02
     16507 MEMB     133      QMPE     C3       CTL2     0.800000E-01   12.0110           0   0.00000     -0.301140E-02
     16508 MEMB     133      QMPE     HX       HAL2     0.900000E-01   1.00800           0   0.00000     -0.301140E-02
     16509 MEMB     133      QMPE     HY       HAL2     0.900000E-01   1.00800           0   0.00000     -0.301140E-02
     16510 MEMB     133      QMPE     O31      OSL     -0.490000       15.9994           0   0.00000     -0.301140E-02
     16511 MEMB     133      QMPE     C31      CL       0.900000       12.0110           0   0.00000     -0.301140E-02
     16512 MEMB     133      QMPE     O32      OBL     -0.630000       15.9994           0   0.00000     -0.301140E-02
     16513 MEMB     133      QMPE     C32      CTL2    -0.220000       12.0110           0   0.00000     -0.301140E-02
     16514 MEMB     133      QMPE     H2X      HAL2     0.900000E-01   1.00800           0   0.00000     -0.301140E-02
     16515 MEMB     133      QMPE     H2Y      HAL2     0.900000E-01   1.00800           0   0.00000     -0.301140E-02
     16516 MEMB     133      QMPE     C23      CTL2    -0.180000       12.0110           0   0.00000     -0.301140E-02
     16517 MEMB     133      QMPE     H3R      HAL2     0.900000E-01   1.00800           0   0.00000     -0.301140E-02
     16518 MEMB     133      QMPE     H3S      HAL2     0.900000E-01   1.00800           0   0.00000     -0.301140E-02
     16519 MEMB     133      QMPE     C24      CTL2    -0.180000       12.0110           0   0.00000     -0.301140E-02
     16520 MEMB     133      QMPE     H4R      HAL2     0.900000E-01   1.00800           0   0.00000     -0.301140E-02
     16521 MEMB     133      QMPE     H4S      HAL2     0.900000E-01   1.00800           0   0.00000     -0.301140E-02
     16522 MEMB     133      QMPE     C25      CTL2    -0.180000       12.0110           0   0.00000     -0.301140E-02
     16523 MEMB     133      QMPE     H5R      HAL2     0.900000E-01   1.00800           0   0.00000     -0.301140E-02
     16524 MEMB     133      QMPE     H5S      HAL2     0.900000E-01   1.00800           0   0.00000     -0.301140E-02
     16525 MEMB     133      QMPE     C26      CTL2    -0.180000       12.0110           0   0.00000     -0.301140E-02
     16526 MEMB     133      QMPE     H6R      HAL2     0.900000E-01   1.00800           0   0.00000     -0.301140E-02
     16527 MEMB     133      QMPE     H6S      HAL2     0.900000E-01   1.00800           0   0.00000     -0.301140E-02
     16528 MEMB     133      QMPE     C27      CTL2    -0.180000       12.0110           0   0.00000     -0.301140E-02
     16529 MEMB     133      QMPE     H7R      HAL2     0.900000E-01   1.00800           0   0.00000     -0.301140E-02
     16530 MEMB     133      QMPE     H7S      HAL2     0.900000E-01   1.00800           0   0.00000     -0.301140E-02
     16531 MEMB     133      QMPE     C28      CTL2    -0.180000       12.0110           0   0.00000     -0.301140E-02
     16532 MEMB     133      QMPE     H8R      HAL2     0.900000E-01   1.00800           0   0.00000     -0.301140E-02
     16533 MEMB     133      QMPE     H8S      HAL2     0.900000E-01   1.00800           0   0.00000     -0.301140E-02
     16534 MEMB     133      QMPE     C29      CG3RC1  -0.900000E-01   12.0110           0   0.00000     -0.301140E-02
     16535 MEMB     133      QMPE     H9R      HGA1     0.900000E-01   1.00800           0   0.00000     -0.301140E-02
     16536 MEMB     133      QMPE     C217     CG3C31  -0.180000       12.0110           0   0.00000     -0.301140E-02
     16537 MEMB     133      QMPE     H17R     HGA2     0.900000E-01   1.00800           0   0.00000     -0.301140E-02
     16538 MEMB     133      QMPE     H17S     HGA2     0.900000E-01   1.00800           0   0.00000     -0.301140E-02
     16539 MEMB     133      QMPE     C210     CG3RC1  -0.900000E-01   12.0110           0   0.00000     -0.301140E-02
     16540 MEMB     133      QMPE     H10R     HGA1     0.900000E-01   1.00800           0   0.00000     -0.301140E-02
     16541 MEMB     133      QMPE     C211     CTL2    -0.180000       12.0110           0   0.00000     -0.301140E-02
     16542 MEMB     133      QMPE     H11R     HAL2     0.900000E-01   1.00800           0   0.00000     -0.301140E-02
     16543 MEMB     133      QMPE     H11S     HAL2     0.900000E-01   1.00800           0   0.00000     -0.301140E-02
     16544 MEMB     133      QMPE     C212     CTL2    -0.180000       12.0110           0   0.00000     -0.301140E-02
     16545 MEMB     133      QMPE     H12R     HAL2     0.900000E-01   1.00800           0   0.00000     -0.301140E-02
     16546 MEMB     133      QMPE     H12S     HAL2     0.900000E-01   1.00800           0   0.00000     -0.301140E-02
     16547 MEMB     133      QMPE     C213     CTL2    -0.180000       12.0110           0   0.00000     -0.301140E-02
     16548 MEMB     133      QMPE     H13R     HAL2     0.900000E-01   1.00800           0   0.00000     -0.301140E-02
     16549 MEMB     133      QMPE     H13S     HAL2     0.900000E-01   1.00800           0   0.00000     -0.301140E-02
     16550 MEMB     133      QMPE     C214     CTL2    -0.180000       12.0110           0   0.00000     -0.301140E-02
     16551 MEMB     133      QMPE     H14R     HAL2     0.900000E-01   1.00800           0   0.00000     -0.301140E-02
     16552 MEMB     133      QMPE     H14S     HAL2     0.900000E-01   1.00800           0   0.00000     -0.301140E-02
     16553 MEMB     133      QMPE     C215     CTL2    -0.180000       12.0110           0   0.00000     -0.301140E-02
     16554 MEMB     133      QMPE     H15R     HAL2     0.900000E-01   1.00800           0   0.00000     -0.301140E-02
     16555 MEMB     133      QMPE     H15S     HAL2     0.900000E-01   1.00800           0   0.00000     -0.301140E-02
     16556 MEMB     133      QMPE     C216     CTL3    -0.270000       12.0110           0   0.00000     -0.301140E-02
     16557 MEMB     133      QMPE     H16R     HAL3     0.900000E-01   1.00800           0   0.00000     -0.301140E-02
     16558 MEMB     133      QMPE     H16S     HAL3     0.900000E-01   1.00800           0   0.00000     -0.301140E-02
     16559 MEMB     133      QMPE     H16T     HAL3     0.900000E-01   1.00800           0   0.00000     -0.301140E-02
     16560 MEMB     133      QMPE     C33      CTL2    -0.180000       12.0110           0   0.00000     -0.301140E-02
     16561 MEMB     133      QMPE     H3X      HAL2     0.900000E-01   1.00800           0   0.00000     -0.301140E-02
     16562 MEMB     133      QMPE     H3Y      HAL2     0.900000E-01   1.00800           0   0.00000     -0.301140E-02
     16563 MEMB     133      QMPE     C34      CTL2    -0.180000       12.0110           0   0.00000     -0.301140E-02
     16564 MEMB     133      QMPE     H4X      HAL2     0.900000E-01   1.00800           0   0.00000     -0.301140E-02
     16565 MEMB     133      QMPE     H4Y      HAL2     0.900000E-01   1.00800           0   0.00000     -0.301140E-02
     16566 MEMB     133      QMPE     C35      CTL2    -0.180000       12.0110           0   0.00000     -0.301140E-02
     16567 MEMB     133      QMPE     H5X      HAL2     0.900000E-01   1.00800           0   0.00000     -0.301140E-02
     16568 MEMB     133      QMPE     H5Y      HAL2     0.900000E-01   1.00800           0   0.00000     -0.301140E-02
     16569 MEMB     133      QMPE     C36      CTL2    -0.180000       12.0110           0   0.00000     -0.301140E-02
     16570 MEMB     133      QMPE     H6X      HAL2     0.900000E-01   1.00800           0   0.00000     -0.301140E-02
     16571 MEMB     133      QMPE     H6Y      HAL2     0.900000E-01   1.00800           0   0.00000     -0.301140E-02
     16572 MEMB     133      QMPE     C37      CTL2    -0.180000       12.0110           0   0.00000     -0.301140E-02
     16573 MEMB     133      QMPE     H7X      HAL2     0.900000E-01   1.00800           0   0.00000     -0.301140E-02
     16574 MEMB     133      QMPE     H7Y      HAL2     0.900000E-01   1.00800           0   0.00000     -0.301140E-02
     16575 MEMB     133      QMPE     C38      CTL2    -0.180000       12.0110           0   0.00000     -0.301140E-02
     16576 MEMB     133      QMPE     H8X      HAL2     0.900000E-01   1.00800           0   0.00000     -0.301140E-02
     16577 MEMB     133      QMPE     H8Y      HAL2     0.900000E-01   1.00800           0   0.00000     -0.301140E-02
     16578 MEMB     133      QMPE     C39      CTL2    -0.180000       12.0110           0   0.00000     -0.301140E-02
     16579 MEMB     133      QMPE     H9X      HAL2     0.900000E-01   1.00800           0   0.00000     -0.301140E-02
     16580 MEMB     133      QMPE     H9Y      HAL2     0.900000E-01   1.00800           0   0.00000     -0.301140E-02
     16581 MEMB     133      QMPE     C310     CTL2    -0.180000       12.0110           0   0.00000     -0.301140E-02
     16582 MEMB     133      QMPE     H10X     HAL2     0.900000E-01   1.00800           0   0.00000     -0.301140E-02
     16583 MEMB     133      QMPE     H10Y     HAL2     0.900000E-01   1.00800           0   0.00000     -0.301140E-02
     16584 MEMB     133      QMPE     C311     CTL2    -0.180000       12.0110           0   0.00000     -0.301140E-02
     16585 MEMB     133      QMPE     H11X     HAL2     0.900000E-01   1.00800           0   0.00000     -0.301140E-02
     16586 MEMB     133      QMPE     H11Y     HAL2     0.900000E-01   1.00800           0   0.00000     -0.301140E-02
     16587 MEMB     133      QMPE     C312     CTL2    -0.180000       12.0110           0   0.00000     -0.301140E-02
     16588 MEMB     133      QMPE     H12X     HAL2     0.900000E-01   1.00800           0   0.00000     -0.301140E-02
     16589 MEMB     133      QMPE     H12Y     HAL2     0.900000E-01   1.00800           0   0.00000     -0.301140E-02
     16590 MEMB     133      QMPE     C313     CTL2    -0.180000       12.0110           0   0.00000     -0.301140E-02
     16591 MEMB     133      QMPE     H13X     HAL2     0.900000E-01   1.00800           0   0.00000     -0.301140E-02
     16592 MEMB     133      QMPE     H13Y     HAL2     0.900000E-01   1.00800           0   0.00000     -0.301140E-02
     16593 MEMB     133      QMPE     C314     CTL2    -0.180000       12.0110           0   0.00000     -0.301140E-02
     16594 MEMB     133      QMPE     H14X     HAL2     0.900000E-01   1.00800           0   0.00000     -0.301140E-02
     16595 MEMB     133      QMPE     H14Y     HAL2     0.900000E-01   1.00800           0   0.00000     -0.301140E-02
     16596 MEMB     133      QMPE     C315     CTL3    -0.270000       12.0110           0   0.00000     -0.301140E-02
     16597 MEMB     133      QMPE     H15X     HAL3     0.900000E-01   1.00800           0   0.00000     -0.301140E-02
     16598 MEMB     133      QMPE     H15Y     HAL3     0.900000E-01   1.00800           0   0.00000     -0.301140E-02
     16599 MEMB     133      QMPE     H15Z     HAL3     0.900000E-01   1.00800           0   0.00000     -0.301140E-02
     16600 MEMB     134      OYPE     N        NH3L    -0.300000       14.0070           0   0.00000     -0.301140E-02
     16601 MEMB     134      OYPE     HN1      HCL      0.330000       1.00800           0   0.00000     -0.301140E-02
     16602 MEMB     134      OYPE     HN2      HCL      0.330000       1.00800           0   0.00000     -0.301140E-02
     16603 MEMB     134      OYPE     HN3      HCL      0.330000       1.00800           0   0.00000     -0.301140E-02
     16604 MEMB     134      OYPE     C12      CTL2     0.130000       12.0110           0   0.00000     -0.301140E-02
     16605 MEMB     134      OYPE     H12A     HAL2     0.900000E-01   1.00800           0   0.00000     -0.301140E-02
     16606 MEMB     134      OYPE     H12B     HAL2     0.900000E-01   1.00800           0   0.00000     -0.301140E-02
     16607 MEMB     134      OYPE     C11      CTL2    -0.800000E-01   12.0110           0   0.00000     -0.301140E-02
     16608 MEMB     134      OYPE     H11A     HAL2     0.900000E-01   1.00800           0   0.00000     -0.301140E-02
     16609 MEMB     134      OYPE     H11B     HAL2     0.900000E-01   1.00800           0   0.00000     -0.301140E-02
     16610 MEMB     134      OYPE     P        PL        1.50000       30.9740           0   0.00000     -0.301140E-02
     16611 MEMB     134      OYPE     O13      O2L     -0.780000       15.9994           0   0.00000     -0.301140E-02
     16612 MEMB     134      OYPE     O14      O2L     -0.780000       15.9994           0   0.00000     -0.301140E-02
     16613 MEMB     134      OYPE     O11      OSLP    -0.570000       15.9994           0   0.00000     -0.301140E-02
     16614 MEMB     134      OYPE     O12      OSLP    -0.570000       15.9994           0   0.00000     -0.301140E-02
     16615 MEMB     134      OYPE     C1       CTL2    -0.800000E-01   12.0110           0   0.00000     -0.301140E-02
     16616 MEMB     134      OYPE     HA       HAL2     0.900000E-01   1.00800           0   0.00000     -0.301140E-02
     16617 MEMB     134      OYPE     HB       HAL2     0.900000E-01   1.00800           0   0.00000     -0.301140E-02
     16618 MEMB     134      OYPE     C2       CTL1     0.170000       12.0110           0   0.00000     -0.301140E-02
     16619 MEMB     134      OYPE     HS       HAL1     0.900000E-01   1.00800           0   0.00000     -0.301140E-02
     16620 MEMB     134      OYPE     O21      OSL     -0.490000       15.9994           0   0.00000     -0.301140E-02
     16621 MEMB     134      OYPE     C21      CL       0.900000       12.0110           0   0.00000     -0.301140E-02
     16622 MEMB     134      OYPE     O22      OBL     -0.630000       15.9994           0   0.00000     -0.301140E-02
     16623 MEMB     134      OYPE     C22      CTL2    -0.220000       12.0110           0   0.00000     -0.301140E-02
     16624 MEMB     134      OYPE     H2R      HAL2     0.900000E-01   1.00800           0   0.00000     -0.301140E-02
     16625 MEMB     134      OYPE     H2S      HAL2     0.900000E-01   1.00800           0   0.00000     -0.301140E-02
     16626 MEMB     134      OYPE     C3       CTL2     0.800000E-01   12.0110           0   0.00000     -0.301140E-02
     16627 MEMB     134      OYPE     HX       HAL2     0.900000E-01   1.00800           0   0.00000     -0.301140E-02
     16628 MEMB     134      OYPE     HY       HAL2     0.900000E-01   1.00800           0   0.00000     -0.301140E-02
     16629 MEMB     134      OYPE     O31      OSL     -0.490000       15.9994           0   0.00000     -0.301140E-02
     16630 MEMB     134      OYPE     C31      CL       0.900000       12.0110           0   0.00000     -0.301140E-02
     16631 MEMB     134      OYPE     O32      OBL     -0.630000       15.9994           0   0.00000     -0.301140E-02
     16632 MEMB     134      OYPE     C32      CTL2    -0.220000       12.0110           0   0.00000     -0.301140E-02
     16633 MEMB     134      OYPE     H2X      HAL2     0.900000E-01   1.00800           0   0.00000     -0.301140E-02
     16634 MEMB     134      OYPE     H2Y      HAL2     0.900000E-01   1.00800           0   0.00000     -0.301140E-02
     16635 MEMB     134      OYPE     C23      CTL2    -0.180000       12.0110           0   0.00000     -0.301140E-02
     16636 MEMB     134      OYPE     H3R      HAL2     0.900000E-01   1.00800           0   0.00000     -0.301140E-02
     16637 MEMB     134      OYPE     H3S      HAL2     0.900000E-01   1.00800           0   0.00000     -0.301140E-02
     16638 MEMB     134      OYPE     C24      CTL2    -0.180000       12.0110           0   0.00000     -0.301140E-02
     16639 MEMB     134      OYPE     H4R      HAL2     0.900000E-01   1.00800           0   0.00000     -0.301140E-02
     16640 MEMB     134      OYPE     H4S      HAL2     0.900000E-01   1.00800           0   0.00000     -0.301140E-02
     16641 MEMB     134      OYPE     C25      CTL2    -0.180000       12.0110           0   0.00000     -0.301140E-02
     16642 MEMB     134      OYPE     H5R      HAL2     0.900000E-01   1.00800           0   0.00000     -0.301140E-02
     16643 MEMB     134      OYPE     H5S      HAL2     0.900000E-01   1.00800           0   0.00000     -0.301140E-02
     16644 MEMB     134      OYPE     C26      CTL2    -0.180000       12.0110           0   0.00000     -0.301140E-02
     16645 MEMB     134      OYPE     H6R      HAL2     0.900000E-01   1.00800           0   0.00000     -0.301140E-02
     16646 MEMB     134      OYPE     H6S      HAL2     0.900000E-01   1.00800           0   0.00000     -0.301140E-02
     16647 MEMB     134      OYPE     C27      CTL2    -0.180000       12.0110           0   0.00000     -0.301140E-02
     16648 MEMB     134      OYPE     H7R      HAL2     0.900000E-01   1.00800           0   0.00000     -0.301140E-02
     16649 MEMB     134      OYPE     H7S      HAL2     0.900000E-01   1.00800           0   0.00000     -0.301140E-02
     16650 MEMB     134      OYPE     C28      CTL2    -0.180000       12.0110           0   0.00000     -0.301140E-02
     16651 MEMB     134      OYPE     H8R      HAL2     0.900000E-01   1.00800           0   0.00000     -0.301140E-02
     16652 MEMB     134      OYPE     H8S      HAL2     0.900000E-01   1.00800           0   0.00000     -0.301140E-02
     16653 MEMB     134      OYPE     C29      CEL1    -0.150000       12.0110           0   0.00000     -0.301140E-02
     16654 MEMB     134      OYPE     H9R      HEL1     0.150000       1.00800           0   0.00000     -0.301140E-02
     16655 MEMB     134      OYPE     C210     CEL1    -0.150000       12.0110           0   0.00000     -0.301140E-02
     16656 MEMB     134      OYPE     H10R     HEL1     0.150000       1.00800           0   0.00000     -0.301140E-02
     16657 MEMB     134      OYPE     C211     CTL2    -0.180000       12.0110           0   0.00000     -0.301140E-02
     16658 MEMB     134      OYPE     H11R     HAL2     0.900000E-01   1.00800           0   0.00000     -0.301140E-02
     16659 MEMB     134      OYPE     H11S     HAL2     0.900000E-01   1.00800           0   0.00000     -0.301140E-02
     16660 MEMB     134      OYPE     C212     CTL2    -0.180000       12.0110           0   0.00000     -0.301140E-02
     16661 MEMB     134      OYPE     H12R     HAL2     0.900000E-01   1.00800           0   0.00000     -0.301140E-02
     16662 MEMB     134      OYPE     H12S     HAL2     0.900000E-01   1.00800           0   0.00000     -0.301140E-02
     16663 MEMB     134      OYPE     C213     CTL2    -0.180000       12.0110           0   0.00000     -0.301140E-02
     16664 MEMB     134      OYPE     H13R     HAL2     0.900000E-01   1.00800           0   0.00000     -0.301140E-02
     16665 MEMB     134      OYPE     H13S     HAL2     0.900000E-01   1.00800           0   0.00000     -0.301140E-02
     16666 MEMB     134      OYPE     C214     CTL2    -0.180000       12.0110           0   0.00000     -0.301140E-02
     16667 MEMB     134      OYPE     H14R     HAL2     0.900000E-01   1.00800           0   0.00000     -0.301140E-02
     16668 MEMB     134      OYPE     H14S     HAL2     0.900000E-01   1.00800           0   0.00000     -0.301140E-02
     16669 MEMB     134      OYPE     C215     CTL2    -0.180000       12.0110           0   0.00000     -0.301140E-02
     16670 MEMB     134      OYPE     H15R     HAL2     0.900000E-01   1.00800           0   0.00000     -0.301140E-02
     16671 MEMB     134      OYPE     H15S     HAL2     0.900000E-01   1.00800           0   0.00000     -0.301140E-02
     16672 MEMB     134      OYPE     C216     CTL3    -0.270000       12.0110           0   0.00000     -0.301140E-02
     16673 MEMB     134      OYPE     H16R     HAL3     0.900000E-01   1.00800           0   0.00000     -0.301140E-02
     16674 MEMB     134      OYPE     H16S     HAL3     0.900000E-01   1.00800           0   0.00000     -0.301140E-02
     16675 MEMB     134      OYPE     H16T     HAL3     0.900000E-01   1.00800           0   0.00000     -0.301140E-02
     16676 MEMB     134      OYPE     C33      CTL2    -0.180000       12.0110           0   0.00000     -0.301140E-02
     16677 MEMB     134      OYPE     H3X      HAL2     0.900000E-01   1.00800           0   0.00000     -0.301140E-02
     16678 MEMB     134      OYPE     H3Y      HAL2     0.900000E-01   1.00800           0   0.00000     -0.301140E-02
     16679 MEMB     134      OYPE     C34      CTL2    -0.180000       12.0110           0   0.00000     -0.301140E-02
     16680 MEMB     134      OYPE     H4X      HAL2     0.900000E-01   1.00800           0   0.00000     -0.301140E-02
     16681 MEMB     134      OYPE     H4Y      HAL2     0.900000E-01   1.00800           0   0.00000     -0.301140E-02
     16682 MEMB     134      OYPE     C35      CTL2    -0.180000       12.0110           0   0.00000     -0.301140E-02
     16683 MEMB     134      OYPE     H5X      HAL2     0.900000E-01   1.00800           0   0.00000     -0.301140E-02
     16684 MEMB     134      OYPE     H5Y      HAL2     0.900000E-01   1.00800           0   0.00000     -0.301140E-02
     16685 MEMB     134      OYPE     C36      CTL2    -0.180000       12.0110           0   0.00000     -0.301140E-02
     16686 MEMB     134      OYPE     H6X      HAL2     0.900000E-01   1.00800           0   0.00000     -0.301140E-02
     16687 MEMB     134      OYPE     H6Y      HAL2     0.900000E-01   1.00800           0   0.00000     -0.301140E-02
     16688 MEMB     134      OYPE     C37      CTL2    -0.180000       12.0110           0   0.00000     -0.301140E-02
     16689 MEMB     134      OYPE     H7X      HAL2     0.900000E-01   1.00800           0   0.00000     -0.301140E-02
     16690 MEMB     134      OYPE     H7Y      HAL2     0.900000E-01   1.00800           0   0.00000     -0.301140E-02
     16691 MEMB     134      OYPE     C38      CTL2    -0.180000       12.0110           0   0.00000     -0.301140E-02
     16692 MEMB     134      OYPE     H8X      HAL2     0.900000E-01   1.00800           0   0.00000     -0.301140E-02
     16693 MEMB     134      OYPE     H8Y      HAL2     0.900000E-01   1.00800           0   0.00000     -0.301140E-02
     16694 MEMB     134      OYPE     C39      CEL1    -0.150000       12.0110           0   0.00000     -0.301140E-02
     16695 MEMB     134      OYPE     H9X      HEL1     0.150000       1.00800           0   0.00000     -0.301140E-02
     16696 MEMB     134      OYPE     C310     CEL1    -0.150000       12.0110           0   0.00000     -0.301140E-02
     16697 MEMB     134      OYPE     H10X     HEL1     0.150000       1.00800           0   0.00000     -0.301140E-02
     16698 MEMB     134      OYPE     C311     CTL2    -0.180000       12.0110           0   0.00000     -0.301140E-02
     16699 MEMB     134      OYPE     H11X     HAL2     0.900000E-01   1.00800           0   0.00000     -0.301140E-02
     16700 MEMB     134      OYPE     H11Y     HAL2     0.900000E-01   1.00800           0   0.00000     -0.301140E-02
     16701 MEMB     134      OYPE     C312     CTL2    -0.180000       12.0110           0   0.00000     -0.301140E-02
     16702 MEMB     134      OYPE     H12X     HAL2     0.900000E-01   1.00800           0   0.00000     -0.301140E-02
     16703 MEMB     134      OYPE     H12Y     HAL2     0.900000E-01   1.00800           0   0.00000     -0.301140E-02
     16704 MEMB     134      OYPE     C313     CTL2    -0.180000       12.0110           0   0.00000     -0.301140E-02
     16705 MEMB     134      OYPE     H13X     HAL2     0.900000E-01   1.00800           0   0.00000     -0.301140E-02
     16706 MEMB     134      OYPE     H13Y     HAL2     0.900000E-01   1.00800           0   0.00000     -0.301140E-02
     16707 MEMB     134      OYPE     C314     CTL2    -0.180000       12.0110           0   0.00000     -0.301140E-02
     16708 MEMB     134      OYPE     H14X     HAL2     0.900000E-01   1.00800           0   0.00000     -0.301140E-02
     16709 MEMB     134      OYPE     H14Y     HAL2     0.900000E-01   1.00800           0   0.00000     -0.301140E-02
     16710 MEMB     134      OYPE     C315     CTL2    -0.180000       12.0110           0   0.00000     -0.301140E-02
     16711 MEMB     134      OYPE     H15X     HAL2     0.900000E-01   1.00800           0   0.00000     -0.301140E-02
     16712 MEMB     134      OYPE     H15Y     HAL2     0.900000E-01   1.00800           0   0.00000     -0.301140E-02
     16713 MEMB     134      OYPE     C316     CTL2    -0.180000       12.0110           0   0.00000     -0.301140E-02
     16714 MEMB     134      OYPE     H16X     HAL2     0.900000E-01   1.00800           0   0.00000     -0.301140E-02
     16715 MEMB     134      OYPE     H16Y     HAL2     0.900000E-01   1.00800           0   0.00000     -0.301140E-02
     16716 MEMB     134      OYPE     C317     CTL2    -0.180000       12.0110           0   0.00000     -0.301140E-02
     16717 MEMB     134      OYPE     H17X     HAL2     0.900000E-01   1.00800           0   0.00000     -0.301140E-02
     16718 MEMB     134      OYPE     H17Y     HAL2     0.900000E-01   1.00800           0   0.00000     -0.301140E-02
     16719 MEMB     134      OYPE     C318     CTL3    -0.270000       12.0110           0   0.00000     -0.301140E-02
     16720 MEMB     134      OYPE     H18X     HAL3     0.900000E-01   1.00800           0   0.00000     -0.301140E-02
     16721 MEMB     134      OYPE     H18Y     HAL3     0.900000E-01   1.00800           0   0.00000     -0.301140E-02
     16722 MEMB     134      OYPE     H18Z     HAL3     0.900000E-01   1.00800           0   0.00000     -0.301140E-02
     16723 MEMB     135      POPE     N        NH3L    -0.300000       14.0070           0   0.00000     -0.301140E-02
     16724 MEMB     135      POPE     HN1      HCL      0.330000       1.00800           0   0.00000     -0.301140E-02
     16725 MEMB     135      POPE     HN2      HCL      0.330000       1.00800           0   0.00000     -0.301140E-02
     16726 MEMB     135      POPE     HN3      HCL      0.330000       1.00800           0   0.00000     -0.301140E-02
     16727 MEMB     135      POPE     C12      CTL2     0.130000       12.0110           0   0.00000     -0.301140E-02
     16728 MEMB     135      POPE     H12A     HAL2     0.900000E-01   1.00800           0   0.00000     -0.301140E-02
     16729 MEMB     135      POPE     H12B     HAL2     0.900000E-01   1.00800           0   0.00000     -0.301140E-02
     16730 MEMB     135      POPE     C11      CTL2    -0.800000E-01   12.0110           0   0.00000     -0.301140E-02
     16731 MEMB     135      POPE     H11A     HAL2     0.900000E-01   1.00800           0   0.00000     -0.301140E-02
     16732 MEMB     135      POPE     H11B     HAL2     0.900000E-01   1.00800           0   0.00000     -0.301140E-02
     16733 MEMB     135      POPE     P        PL        1.50000       30.9740           0   0.00000     -0.301140E-02
     16734 MEMB     135      POPE     O13      O2L     -0.780000       15.9994           0   0.00000     -0.301140E-02
     16735 MEMB     135      POPE     O14      O2L     -0.780000       15.9994           0   0.00000     -0.301140E-02
     16736 MEMB     135      POPE     O11      OSLP    -0.570000       15.9994           0   0.00000     -0.301140E-02
     16737 MEMB     135      POPE     O12      OSLP    -0.570000       15.9994           0   0.00000     -0.301140E-02
     16738 MEMB     135      POPE     C1       CTL2    -0.800000E-01   12.0110           0   0.00000     -0.301140E-02
     16739 MEMB     135      POPE     HA       HAL2     0.900000E-01   1.00800           0   0.00000     -0.301140E-02
     16740 MEMB     135      POPE     HB       HAL2     0.900000E-01   1.00800           0   0.00000     -0.301140E-02
     16741 MEMB     135      POPE     C2       CTL1     0.170000       12.0110           0   0.00000     -0.301140E-02
     16742 MEMB     135      POPE     HS       HAL1     0.900000E-01   1.00800           0   0.00000     -0.301140E-02
     16743 MEMB     135      POPE     O21      OSL     -0.490000       15.9994           0   0.00000     -0.301140E-02
     16744 MEMB     135      POPE     C21      CL       0.900000       12.0110           0   0.00000     -0.301140E-02
     16745 MEMB     135      POPE     O22      OBL     -0.630000       15.9994           0   0.00000     -0.301140E-02
     16746 MEMB     135      POPE     C22      CTL2    -0.220000       12.0110           0   0.00000     -0.301140E-02
     16747 MEMB     135      POPE     H2R      HAL2     0.900000E-01   1.00800           0   0.00000     -0.301140E-02
     16748 MEMB     135      POPE     H2S      HAL2     0.900000E-01   1.00800           0   0.00000     -0.301140E-02
     16749 MEMB     135      POPE     C3       CTL2     0.800000E-01   12.0110           0   0.00000     -0.301140E-02
     16750 MEMB     135      POPE     HX       HAL2     0.900000E-01   1.00800           0   0.00000     -0.301140E-02
     16751 MEMB     135      POPE     HY       HAL2     0.900000E-01   1.00800           0   0.00000     -0.301140E-02
     16752 MEMB     135      POPE     O31      OSL     -0.490000       15.9994           0   0.00000     -0.301140E-02
     16753 MEMB     135      POPE     C31      CL       0.900000       12.0110           0   0.00000     -0.301140E-02
     16754 MEMB     135      POPE     O32      OBL     -0.630000       15.9994           0   0.00000     -0.301140E-02
     16755 MEMB     135      POPE     C32      CTL2    -0.220000       12.0110           0   0.00000     -0.301140E-02
     16756 MEMB     135      POPE     H2X      HAL2     0.900000E-01   1.00800           0   0.00000     -0.301140E-02
     16757 MEMB     135      POPE     H2Y      HAL2     0.900000E-01   1.00800           0   0.00000     -0.301140E-02
     16758 MEMB     135      POPE     C23      CTL2    -0.180000       12.0110           0   0.00000     -0.301140E-02
     16759 MEMB     135      POPE     H3R      HAL2     0.900000E-01   1.00800           0   0.00000     -0.301140E-02
     16760 MEMB     135      POPE     H3S      HAL2     0.900000E-01   1.00800           0   0.00000     -0.301140E-02
     16761 MEMB     135      POPE     C24      CTL2    -0.180000       12.0110           0   0.00000     -0.301140E-02
     16762 MEMB     135      POPE     H4R      HAL2     0.900000E-01   1.00800           0   0.00000     -0.301140E-02
     16763 MEMB     135      POPE     H4S      HAL2     0.900000E-01   1.00800           0   0.00000     -0.301140E-02
     16764 MEMB     135      POPE     C25      CTL2    -0.180000       12.0110           0   0.00000     -0.301140E-02
     16765 MEMB     135      POPE     H5R      HAL2     0.900000E-01   1.00800           0   0.00000     -0.301140E-02
     16766 MEMB     135      POPE     H5S      HAL2     0.900000E-01   1.00800           0   0.00000     -0.301140E-02
     16767 MEMB     135      POPE     C26      CTL2    -0.180000       12.0110           0   0.00000     -0.301140E-02
     16768 MEMB     135      POPE     H6R      HAL2     0.900000E-01   1.00800           0   0.00000     -0.301140E-02
     16769 MEMB     135      POPE     H6S      HAL2     0.900000E-01   1.00800           0   0.00000     -0.301140E-02
     16770 MEMB     135      POPE     C27      CTL2    -0.180000       12.0110           0   0.00000     -0.301140E-02
     16771 MEMB     135      POPE     H7R      HAL2     0.900000E-01   1.00800           0   0.00000     -0.301140E-02
     16772 MEMB     135      POPE     H7S      HAL2     0.900000E-01   1.00800           0   0.00000     -0.301140E-02
     16773 MEMB     135      POPE     C28      CTL2    -0.180000       12.0110           0   0.00000     -0.301140E-02
     16774 MEMB     135      POPE     H8R      HAL2     0.900000E-01   1.00800           0   0.00000     -0.301140E-02
     16775 MEMB     135      POPE     H8S      HAL2     0.900000E-01   1.00800           0   0.00000     -0.301140E-02
     16776 MEMB     135      POPE     C29      CEL1    -0.150000       12.0110           0   0.00000     -0.301140E-02
     16777 MEMB     135      POPE     H91      HEL1     0.150000       1.00800           0   0.00000     -0.301140E-02
     16778 MEMB     135      POPE     C210     CEL1    -0.150000       12.0110           0   0.00000     -0.301140E-02
     16779 MEMB     135      POPE     H101     HEL1     0.150000       1.00800           0   0.00000     -0.301140E-02
     16780 MEMB     135      POPE     C211     CTL2    -0.180000       12.0110           0   0.00000     -0.301140E-02
     16781 MEMB     135      POPE     H11R     HAL2     0.900000E-01   1.00800           0   0.00000     -0.301140E-02
     16782 MEMB     135      POPE     H11S     HAL2     0.900000E-01   1.00800           0   0.00000     -0.301140E-02
     16783 MEMB     135      POPE     C212     CTL2    -0.180000       12.0110           0   0.00000     -0.301140E-02
     16784 MEMB     135      POPE     H12R     HAL2     0.900000E-01   1.00800           0   0.00000     -0.301140E-02
     16785 MEMB     135      POPE     H12S     HAL2     0.900000E-01   1.00800           0   0.00000     -0.301140E-02
     16786 MEMB     135      POPE     C213     CTL2    -0.180000       12.0110           0   0.00000     -0.301140E-02
     16787 MEMB     135      POPE     H13R     HAL2     0.900000E-01   1.00800           0   0.00000     -0.301140E-02
     16788 MEMB     135      POPE     H13S     HAL2     0.900000E-01   1.00800           0   0.00000     -0.301140E-02
     16789 MEMB     135      POPE     C214     CTL2    -0.180000       12.0110           0   0.00000     -0.301140E-02
     16790 MEMB     135      POPE     H14R     HAL2     0.900000E-01   1.00800           0   0.00000     -0.301140E-02
     16791 MEMB     135      POPE     H14S     HAL2     0.900000E-01   1.00800           0   0.00000     -0.301140E-02
     16792 MEMB     135      POPE     C215     CTL2    -0.180000       12.0110           0   0.00000     -0.301140E-02
     16793 MEMB     135      POPE     H15R     HAL2     0.900000E-01   1.00800           0   0.00000     -0.301140E-02
     16794 MEMB     135      POPE     H15S     HAL2     0.900000E-01   1.00800           0   0.00000     -0.301140E-02
     16795 MEMB     135      POPE     C216     CTL2    -0.180000       12.0110           0   0.00000     -0.301140E-02
     16796 MEMB     135      POPE     H16R     HAL2     0.900000E-01   1.00800           0   0.00000     -0.301140E-02
     16797 MEMB     135      POPE     H16S     HAL2     0.900000E-01   1.00800           0   0.00000     -0.301140E-02
     16798 MEMB     135      POPE     C217     CTL2    -0.180000       12.0110           0   0.00000     -0.301140E-02
     16799 MEMB     135      POPE     H17R     HAL2     0.900000E-01   1.00800           0   0.00000     -0.301140E-02
     16800 MEMB     135      POPE     H17S     HAL2     0.900000E-01   1.00800           0   0.00000     -0.301140E-02
     16801 MEMB     135      POPE     C218     CTL3    -0.270000       12.0110           0   0.00000     -0.301140E-02
     16802 MEMB     135      POPE     H18R     HAL3     0.900000E-01   1.00800           0   0.00000     -0.301140E-02
     16803 MEMB     135      POPE     H18S     HAL3     0.900000E-01   1.00800           0   0.00000     -0.301140E-02
     16804 MEMB     135      POPE     H18T     HAL3     0.900000E-01   1.00800           0   0.00000     -0.301140E-02
     16805 MEMB     135      POPE     C33      CTL2    -0.180000       12.0110           0   0.00000     -0.301140E-02
     16806 MEMB     135      POPE     H3X      HAL2     0.900000E-01   1.00800           0   0.00000     -0.301140E-02
     16807 MEMB     135      POPE     H3Y      HAL2     0.900000E-01   1.00800           0   0.00000     -0.301140E-02
     16808 MEMB     135      POPE     C34      CTL2    -0.180000       12.0110           0   0.00000     -0.301140E-02
     16809 MEMB     135      POPE     H4X      HAL2     0.900000E-01   1.00800           0   0.00000     -0.301140E-02
     16810 MEMB     135      POPE     H4Y      HAL2     0.900000E-01   1.00800           0   0.00000     -0.301140E-02
     16811 MEMB     135      POPE     C35      CTL2    -0.180000       12.0110           0   0.00000     -0.301140E-02
     16812 MEMB     135      POPE     H5X      HAL2     0.900000E-01   1.00800           0   0.00000     -0.301140E-02
     16813 MEMB     135      POPE     H5Y      HAL2     0.900000E-01   1.00800           0   0.00000     -0.301140E-02
     16814 MEMB     135      POPE     C36      CTL2    -0.180000       12.0110           0   0.00000     -0.301140E-02
     16815 MEMB     135      POPE     H6X      HAL2     0.900000E-01   1.00800           0   0.00000     -0.301140E-02
     16816 MEMB     135      POPE     H6Y      HAL2     0.900000E-01   1.00800           0   0.00000     -0.301140E-02
     16817 MEMB     135      POPE     C37      CTL2    -0.180000       12.0110           0   0.00000     -0.301140E-02
     16818 MEMB     135      POPE     H7X      HAL2     0.900000E-01   1.00800           0   0.00000     -0.301140E-02
     16819 MEMB     135      POPE     H7Y      HAL2     0.900000E-01   1.00800           0   0.00000     -0.301140E-02
     16820 MEMB     135      POPE     C38      CTL2    -0.180000       12.0110           0   0.00000     -0.301140E-02
     16821 MEMB     135      POPE     H8X      HAL2     0.900000E-01   1.00800           0   0.00000     -0.301140E-02
     16822 MEMB     135      POPE     H8Y      HAL2     0.900000E-01   1.00800           0   0.00000     -0.301140E-02
     16823 MEMB     135      POPE     C39      CTL2    -0.180000       12.0110           0   0.00000     -0.301140E-02
     16824 MEMB     135      POPE     H9X      HAL2     0.900000E-01   1.00800           0   0.00000     -0.301140E-02
     16825 MEMB     135      POPE     H9Y      HAL2     0.900000E-01   1.00800           0   0.00000     -0.301140E-02
     16826 MEMB     135      POPE     C310     CTL2    -0.180000       12.0110           0   0.00000     -0.301140E-02
     16827 MEMB     135      POPE     H10X     HAL2     0.900000E-01   1.00800           0   0.00000     -0.301140E-02
     16828 MEMB     135      POPE     H10Y     HAL2     0.900000E-01   1.00800           0   0.00000     -0.301140E-02
     16829 MEMB     135      POPE     C311     CTL2    -0.180000       12.0110           0   0.00000     -0.301140E-02
     16830 MEMB     135      POPE     H11X     HAL2     0.900000E-01   1.00800           0   0.00000     -0.301140E-02
     16831 MEMB     135      POPE     H11Y     HAL2     0.900000E-01   1.00800           0   0.00000     -0.301140E-02
     16832 MEMB     135      POPE     C312     CTL2    -0.180000       12.0110           0   0.00000     -0.301140E-02
     16833 MEMB     135      POPE     H12X     HAL2     0.900000E-01   1.00800           0   0.00000     -0.301140E-02
     16834 MEMB     135      POPE     H12Y     HAL2     0.900000E-01   1.00800           0   0.00000     -0.301140E-02
     16835 MEMB     135      POPE     C313     CTL2    -0.180000       12.0110           0   0.00000     -0.301140E-02
     16836 MEMB     135      POPE     H13X     HAL2     0.900000E-01   1.00800           0   0.00000     -0.301140E-02
     16837 MEMB     135      POPE     H13Y     HAL2     0.900000E-01   1.00800           0   0.00000     -0.301140E-02
     16838 MEMB     135      POPE     C314     CTL2    -0.180000       12.0110           0   0.00000     -0.301140E-02
     16839 MEMB     135      POPE     H14X     HAL2     0.900000E-01   1.00800           0   0.00000     -0.301140E-02
     16840 MEMB     135      POPE     H14Y     HAL2     0.900000E-01   1.00800           0   0.00000     -0.301140E-02
     16841 MEMB     135      POPE     C315     CTL2    -0.180000       12.0110           0   0.00000     -0.301140E-02
     16842 MEMB     135      POPE     H15X     HAL2     0.900000E-01   1.00800           0   0.00000     -0.301140E-02
     16843 MEMB     135      POPE     H15Y     HAL2     0.900000E-01   1.00800           0   0.00000     -0.301140E-02
     16844 MEMB     135      POPE     C316     CTL3    -0.270000       12.0110           0   0.00000     -0.301140E-02
     16845 MEMB     135      POPE     H16X     HAL3     0.900000E-01   1.00800           0   0.00000     -0.301140E-02
     16846 MEMB     135      POPE     H16Y     HAL3     0.900000E-01   1.00800           0   0.00000     -0.301140E-02
     16847 MEMB     135      POPE     H16Z     HAL3     0.900000E-01   1.00800           0   0.00000     -0.301140E-02
     16848 MEMB     136      OYPE     N        NH3L    -0.300000       14.0070           0   0.00000     -0.301140E-02
     16849 MEMB     136      OYPE     HN1      HCL      0.330000       1.00800           0   0.00000     -0.301140E-02
     16850 MEMB     136      OYPE     HN2      HCL      0.330000       1.00800           0   0.00000     -0.301140E-02
     16851 MEMB     136      OYPE     HN3      HCL      0.330000       1.00800           0   0.00000     -0.301140E-02
     16852 MEMB     136      OYPE     C12      CTL2     0.130000       12.0110           0   0.00000     -0.301140E-02
     16853 MEMB     136      OYPE     H12A     HAL2     0.900000E-01   1.00800           0   0.00000     -0.301140E-02
     16854 MEMB     136      OYPE     H12B     HAL2     0.900000E-01   1.00800           0   0.00000     -0.301140E-02
     16855 MEMB     136      OYPE     C11      CTL2    -0.800000E-01   12.0110           0   0.00000     -0.301140E-02
     16856 MEMB     136      OYPE     H11A     HAL2     0.900000E-01   1.00800           0   0.00000     -0.301140E-02
     16857 MEMB     136      OYPE     H11B     HAL2     0.900000E-01   1.00800           0   0.00000     -0.301140E-02
     16858 MEMB     136      OYPE     P        PL        1.50000       30.9740           0   0.00000     -0.301140E-02
     16859 MEMB     136      OYPE     O13      O2L     -0.780000       15.9994           0   0.00000     -0.301140E-02
     16860 MEMB     136      OYPE     O14      O2L     -0.780000       15.9994           0   0.00000     -0.301140E-02
     16861 MEMB     136      OYPE     O11      OSLP    -0.570000       15.9994           0   0.00000     -0.301140E-02
     16862 MEMB     136      OYPE     O12      OSLP    -0.570000       15.9994           0   0.00000     -0.301140E-02
     16863 MEMB     136      OYPE     C1       CTL2    -0.800000E-01   12.0110           0   0.00000     -0.301140E-02
     16864 MEMB     136      OYPE     HA       HAL2     0.900000E-01   1.00800           0   0.00000     -0.301140E-02
     16865 MEMB     136      OYPE     HB       HAL2     0.900000E-01   1.00800           0   0.00000     -0.301140E-02
     16866 MEMB     136      OYPE     C2       CTL1     0.170000       12.0110           0   0.00000     -0.301140E-02
     16867 MEMB     136      OYPE     HS       HAL1     0.900000E-01   1.00800           0   0.00000     -0.301140E-02
     16868 MEMB     136      OYPE     O21      OSL     -0.490000       15.9994           0   0.00000     -0.301140E-02
     16869 MEMB     136      OYPE     C21      CL       0.900000       12.0110           0   0.00000     -0.301140E-02
     16870 MEMB     136      OYPE     O22      OBL     -0.630000       15.9994           0   0.00000     -0.301140E-02
     16871 MEMB     136      OYPE     C22      CTL2    -0.220000       12.0110           0   0.00000     -0.301140E-02
     16872 MEMB     136      OYPE     H2R      HAL2     0.900000E-01   1.00800           0   0.00000     -0.301140E-02
     16873 MEMB     136      OYPE     H2S      HAL2     0.900000E-01   1.00800           0   0.00000     -0.301140E-02
     16874 MEMB     136      OYPE     C3       CTL2     0.800000E-01   12.0110           0   0.00000     -0.301140E-02
     16875 MEMB     136      OYPE     HX       HAL2     0.900000E-01   1.00800           0   0.00000     -0.301140E-02
     16876 MEMB     136      OYPE     HY       HAL2     0.900000E-01   1.00800           0   0.00000     -0.301140E-02
     16877 MEMB     136      OYPE     O31      OSL     -0.490000       15.9994           0   0.00000     -0.301140E-02
     16878 MEMB     136      OYPE     C31      CL       0.900000       12.0110           0   0.00000     -0.301140E-02
     16879 MEMB     136      OYPE     O32      OBL     -0.630000       15.9994           0   0.00000     -0.301140E-02
     16880 MEMB     136      OYPE     C32      CTL2    -0.220000       12.0110           0   0.00000     -0.301140E-02
     16881 MEMB     136      OYPE     H2X      HAL2     0.900000E-01   1.00800           0   0.00000     -0.301140E-02
     16882 MEMB     136      OYPE     H2Y      HAL2     0.900000E-01   1.00800           0   0.00000     -0.301140E-02
     16883 MEMB     136      OYPE     C23      CTL2    -0.180000       12.0110           0   0.00000     -0.301140E-02
     16884 MEMB     136      OYPE     H3R      HAL2     0.900000E-01   1.00800           0   0.00000     -0.301140E-02
     16885 MEMB     136      OYPE     H3S      HAL2     0.900000E-01   1.00800           0   0.00000     -0.301140E-02
     16886 MEMB     136      OYPE     C24      CTL2    -0.180000       12.0110           0   0.00000     -0.301140E-02
     16887 MEMB     136      OYPE     H4R      HAL2     0.900000E-01   1.00800           0   0.00000     -0.301140E-02
     16888 MEMB     136      OYPE     H4S      HAL2     0.900000E-01   1.00800           0   0.00000     -0.301140E-02
     16889 MEMB     136      OYPE     C25      CTL2    -0.180000       12.0110           0   0.00000     -0.301140E-02
     16890 MEMB     136      OYPE     H5R      HAL2     0.900000E-01   1.00800           0   0.00000     -0.301140E-02
     16891 MEMB     136      OYPE     H5S      HAL2     0.900000E-01   1.00800           0   0.00000     -0.301140E-02
     16892 MEMB     136      OYPE     C26      CTL2    -0.180000       12.0110           0   0.00000     -0.301140E-02
     16893 MEMB     136      OYPE     H6R      HAL2     0.900000E-01   1.00800           0   0.00000     -0.301140E-02
     16894 MEMB     136      OYPE     H6S      HAL2     0.900000E-01   1.00800           0   0.00000     -0.301140E-02
     16895 MEMB     136      OYPE     C27      CTL2    -0.180000       12.0110           0   0.00000     -0.301140E-02
     16896 MEMB     136      OYPE     H7R      HAL2     0.900000E-01   1.00800           0   0.00000     -0.301140E-02
     16897 MEMB     136      OYPE     H7S      HAL2     0.900000E-01   1.00800           0   0.00000     -0.301140E-02
     16898 MEMB     136      OYPE     C28      CTL2    -0.180000       12.0110           0   0.00000     -0.301140E-02
     16899 MEMB     136      OYPE     H8R      HAL2     0.900000E-01   1.00800           0   0.00000     -0.301140E-02
     16900 MEMB     136      OYPE     H8S      HAL2     0.900000E-01   1.00800           0   0.00000     -0.301140E-02
     16901 MEMB     136      OYPE     C29      CEL1    -0.150000       12.0110           0   0.00000     -0.301140E-02
     16902 MEMB     136      OYPE     H9R      HEL1     0.150000       1.00800           0   0.00000     -0.301140E-02
     16903 MEMB     136      OYPE     C210     CEL1    -0.150000       12.0110           0   0.00000     -0.301140E-02
     16904 MEMB     136      OYPE     H10R     HEL1     0.150000       1.00800           0   0.00000     -0.301140E-02
     16905 MEMB     136      OYPE     C211     CTL2    -0.180000       12.0110           0   0.00000     -0.301140E-02
     16906 MEMB     136      OYPE     H11R     HAL2     0.900000E-01   1.00800           0   0.00000     -0.301140E-02
     16907 MEMB     136      OYPE     H11S     HAL2     0.900000E-01   1.00800           0   0.00000     -0.301140E-02
     16908 MEMB     136      OYPE     C212     CTL2    -0.180000       12.0110           0   0.00000     -0.301140E-02
     16909 MEMB     136      OYPE     H12R     HAL2     0.900000E-01   1.00800           0   0.00000     -0.301140E-02
     16910 MEMB     136      OYPE     H12S     HAL2     0.900000E-01   1.00800           0   0.00000     -0.301140E-02
     16911 MEMB     136      OYPE     C213     CTL2    -0.180000       12.0110           0   0.00000     -0.301140E-02
     16912 MEMB     136      OYPE     H13R     HAL2     0.900000E-01   1.00800           0   0.00000     -0.301140E-02
     16913 MEMB     136      OYPE     H13S     HAL2     0.900000E-01   1.00800           0   0.00000     -0.301140E-02
     16914 MEMB     136      OYPE     C214     CTL2    -0.180000       12.0110           0   0.00000     -0.301140E-02
     16915 MEMB     136      OYPE     H14R     HAL2     0.900000E-01   1.00800           0   0.00000     -0.301140E-02
     16916 MEMB     136      OYPE     H14S     HAL2     0.900000E-01   1.00800           0   0.00000     -0.301140E-02
     16917 MEMB     136      OYPE     C215     CTL2    -0.180000       12.0110           0   0.00000     -0.301140E-02
     16918 MEMB     136      OYPE     H15R     HAL2     0.900000E-01   1.00800           0   0.00000     -0.301140E-02
     16919 MEMB     136      OYPE     H15S     HAL2     0.900000E-01   1.00800           0   0.00000     -0.301140E-02
     16920 MEMB     136      OYPE     C216     CTL3    -0.270000       12.0110           0   0.00000     -0.301140E-02
     16921 MEMB     136      OYPE     H16R     HAL3     0.900000E-01   1.00800           0   0.00000     -0.301140E-02
     16922 MEMB     136      OYPE     H16S     HAL3     0.900000E-01   1.00800           0   0.00000     -0.301140E-02
     16923 MEMB     136      OYPE     H16T     HAL3     0.900000E-01   1.00800           0   0.00000     -0.301140E-02
     16924 MEMB     136      OYPE     C33      CTL2    -0.180000       12.0110           0   0.00000     -0.301140E-02
     16925 MEMB     136      OYPE     H3X      HAL2     0.900000E-01   1.00800           0   0.00000     -0.301140E-02
     16926 MEMB     136      OYPE     H3Y      HAL2     0.900000E-01   1.00800           0   0.00000     -0.301140E-02
     16927 MEMB     136      OYPE     C34      CTL2    -0.180000       12.0110           0   0.00000     -0.301140E-02
     16928 MEMB     136      OYPE     H4X      HAL2     0.900000E-01   1.00800           0   0.00000     -0.301140E-02
     16929 MEMB     136      OYPE     H4Y      HAL2     0.900000E-01   1.00800           0   0.00000     -0.301140E-02
     16930 MEMB     136      OYPE     C35      CTL2    -0.180000       12.0110           0   0.00000     -0.301140E-02
     16931 MEMB     136      OYPE     H5X      HAL2     0.900000E-01   1.00800           0   0.00000     -0.301140E-02
     16932 MEMB     136      OYPE     H5Y      HAL2     0.900000E-01   1.00800           0   0.00000     -0.301140E-02
     16933 MEMB     136      OYPE     C36      CTL2    -0.180000       12.0110           0   0.00000     -0.301140E-02
     16934 MEMB     136      OYPE     H6X      HAL2     0.900000E-01   1.00800           0   0.00000     -0.301140E-02
     16935 MEMB     136      OYPE     H6Y      HAL2     0.900000E-01   1.00800           0   0.00000     -0.301140E-02
     16936 MEMB     136      OYPE     C37      CTL2    -0.180000       12.0110           0   0.00000     -0.301140E-02
     16937 MEMB     136      OYPE     H7X      HAL2     0.900000E-01   1.00800           0   0.00000     -0.301140E-02
     16938 MEMB     136      OYPE     H7Y      HAL2     0.900000E-01   1.00800           0   0.00000     -0.301140E-02
     16939 MEMB     136      OYPE     C38      CTL2    -0.180000       12.0110           0   0.00000     -0.301140E-02
     16940 MEMB     136      OYPE     H8X      HAL2     0.900000E-01   1.00800           0   0.00000     -0.301140E-02
     16941 MEMB     136      OYPE     H8Y      HAL2     0.900000E-01   1.00800           0   0.00000     -0.301140E-02
     16942 MEMB     136      OYPE     C39      CEL1    -0.150000       12.0110           0   0.00000     -0.301140E-02
     16943 MEMB     136      OYPE     H9X      HEL1     0.150000       1.00800           0   0.00000     -0.301140E-02
     16944 MEMB     136      OYPE     C310     CEL1    -0.150000       12.0110           0   0.00000     -0.301140E-02
     16945 MEMB     136      OYPE     H10X     HEL1     0.150000       1.00800           0   0.00000     -0.301140E-02
     16946 MEMB     136      OYPE     C311     CTL2    -0.180000       12.0110           0   0.00000     -0.301140E-02
     16947 MEMB     136      OYPE     H11X     HAL2     0.900000E-01   1.00800           0   0.00000     -0.301140E-02
     16948 MEMB     136      OYPE     H11Y     HAL2     0.900000E-01   1.00800           0   0.00000     -0.301140E-02
     16949 MEMB     136      OYPE     C312     CTL2    -0.180000       12.0110           0   0.00000     -0.301140E-02
     16950 MEMB     136      OYPE     H12X     HAL2     0.900000E-01   1.00800           0   0.00000     -0.301140E-02
     16951 MEMB     136      OYPE     H12Y     HAL2     0.900000E-01   1.00800           0   0.00000     -0.301140E-02
     16952 MEMB     136      OYPE     C313     CTL2    -0.180000       12.0110           0   0.00000     -0.301140E-02
     16953 MEMB     136      OYPE     H13X     HAL2     0.900000E-01   1.00800           0   0.00000     -0.301140E-02
     16954 MEMB     136      OYPE     H13Y     HAL2     0.900000E-01   1.00800           0   0.00000     -0.301140E-02
     16955 MEMB     136      OYPE     C314     CTL2    -0.180000       12.0110           0   0.00000     -0.301140E-02
     16956 MEMB     136      OYPE     H14X     HAL2     0.900000E-01   1.00800           0   0.00000     -0.301140E-02
     16957 MEMB     136      OYPE     H14Y     HAL2     0.900000E-01   1.00800           0   0.00000     -0.301140E-02
     16958 MEMB     136      OYPE     C315     CTL2    -0.180000       12.0110           0   0.00000     -0.301140E-02
     16959 MEMB     136      OYPE     H15X     HAL2     0.900000E-01   1.00800           0   0.00000     -0.301140E-02
     16960 MEMB     136      OYPE     H15Y     HAL2     0.900000E-01   1.00800           0   0.00000     -0.301140E-02
     16961 MEMB     136      OYPE     C316     CTL2    -0.180000       12.0110           0   0.00000     -0.301140E-02
     16962 MEMB     136      OYPE     H16X     HAL2     0.900000E-01   1.00800           0   0.00000     -0.301140E-02
     16963 MEMB     136      OYPE     H16Y     HAL2     0.900000E-01   1.00800           0   0.00000     -0.301140E-02
     16964 MEMB     136      OYPE     C317     CTL2    -0.180000       12.0110           0   0.00000     -0.301140E-02
     16965 MEMB     136      OYPE     H17X     HAL2     0.900000E-01   1.00800           0   0.00000     -0.301140E-02
     16966 MEMB     136      OYPE     H17Y     HAL2     0.900000E-01   1.00800           0   0.00000     -0.301140E-02
     16967 MEMB     136      OYPE     C318     CTL3    -0.270000       12.0110           0   0.00000     -0.301140E-02
     16968 MEMB     136      OYPE     H18X     HAL3     0.900000E-01   1.00800           0   0.00000     -0.301140E-02
     16969 MEMB     136      OYPE     H18Y     HAL3     0.900000E-01   1.00800           0   0.00000     -0.301140E-02
     16970 MEMB     136      OYPE     H18Z     HAL3     0.900000E-01   1.00800           0   0.00000     -0.301140E-02
     16971 MEMB     137      PMPE     N        NH3L    -0.300000       14.0070           0   0.00000     -0.301140E-02
     16972 MEMB     137      PMPE     HN1      HCL      0.330000       1.00800           0   0.00000     -0.301140E-02
     16973 MEMB     137      PMPE     HN2      HCL      0.330000       1.00800           0   0.00000     -0.301140E-02
     16974 MEMB     137      PMPE     HN3      HCL      0.330000       1.00800           0   0.00000     -0.301140E-02
     16975 MEMB     137      PMPE     C12      CTL2     0.130000       12.0110           0   0.00000     -0.301140E-02
     16976 MEMB     137      PMPE     H12A     HAL2     0.900000E-01   1.00800           0   0.00000     -0.301140E-02
     16977 MEMB     137      PMPE     H12B     HAL2     0.900000E-01   1.00800           0   0.00000     -0.301140E-02
     16978 MEMB     137      PMPE     C11      CTL2    -0.800000E-01   12.0110           0   0.00000     -0.301140E-02
     16979 MEMB     137      PMPE     H11A     HAL2     0.900000E-01   1.00800           0   0.00000     -0.301140E-02
     16980 MEMB     137      PMPE     H11B     HAL2     0.900000E-01   1.00800           0   0.00000     -0.301140E-02
     16981 MEMB     137      PMPE     P        PL        1.50000       30.9740           0   0.00000     -0.301140E-02
     16982 MEMB     137      PMPE     O13      O2L     -0.780000       15.9994           0   0.00000     -0.301140E-02
     16983 MEMB     137      PMPE     O14      O2L     -0.780000       15.9994           0   0.00000     -0.301140E-02
     16984 MEMB     137      PMPE     O11      OSLP    -0.570000       15.9994           0   0.00000     -0.301140E-02
     16985 MEMB     137      PMPE     O12      OSLP    -0.570000       15.9994           0   0.00000     -0.301140E-02
     16986 MEMB     137      PMPE     C1       CTL2    -0.800000E-01   12.0110           0   0.00000     -0.301140E-02
     16987 MEMB     137      PMPE     HA       HAL2     0.900000E-01   1.00800           0   0.00000     -0.301140E-02
     16988 MEMB     137      PMPE     HB       HAL2     0.900000E-01   1.00800           0   0.00000     -0.301140E-02
     16989 MEMB     137      PMPE     C2       CTL1     0.170000       12.0110           0   0.00000     -0.301140E-02
     16990 MEMB     137      PMPE     HS       HAL1     0.900000E-01   1.00800           0   0.00000     -0.301140E-02
     16991 MEMB     137      PMPE     O21      OSL     -0.490000       15.9994           0   0.00000     -0.301140E-02
     16992 MEMB     137      PMPE     C21      CL       0.900000       12.0110           0   0.00000     -0.301140E-02
     16993 MEMB     137      PMPE     O22      OBL     -0.630000       15.9994           0   0.00000     -0.301140E-02
     16994 MEMB     137      PMPE     C22      CTL2    -0.220000       12.0110           0   0.00000     -0.301140E-02
     16995 MEMB     137      PMPE     H2R      HAL2     0.900000E-01   1.00800           0   0.00000     -0.301140E-02
     16996 MEMB     137      PMPE     H2S      HAL2     0.900000E-01   1.00800           0   0.00000     -0.301140E-02
     16997 MEMB     137      PMPE     C3       CTL2     0.800000E-01   12.0110           0   0.00000     -0.301140E-02
     16998 MEMB     137      PMPE     HX       HAL2     0.900000E-01   1.00800           0   0.00000     -0.301140E-02
     16999 MEMB     137      PMPE     HY       HAL2     0.900000E-01   1.00800           0   0.00000     -0.301140E-02
     17000 MEMB     137      PMPE     O31      OSL     -0.490000       15.9994           0   0.00000     -0.301140E-02
     17001 MEMB     137      PMPE     C31      CL       0.900000       12.0110           0   0.00000     -0.301140E-02
     17002 MEMB     137      PMPE     O32      OBL     -0.630000       15.9994           0   0.00000     -0.301140E-02
     17003 MEMB     137      PMPE     C32      CTL2    -0.220000       12.0110           0   0.00000     -0.301140E-02
     17004 MEMB     137      PMPE     H2X      HAL2     0.900000E-01   1.00800           0   0.00000     -0.301140E-02
     17005 MEMB     137      PMPE     H2Y      HAL2     0.900000E-01   1.00800           0   0.00000     -0.301140E-02
     17006 MEMB     137      PMPE     C23      CTL2    -0.180000       12.0110           0   0.00000     -0.301140E-02
     17007 MEMB     137      PMPE     H3R      HAL2     0.900000E-01   1.00800           0   0.00000     -0.301140E-02
     17008 MEMB     137      PMPE     H3S      HAL2     0.900000E-01   1.00800           0   0.00000     -0.301140E-02
     17009 MEMB     137      PMPE     C24      CTL2    -0.180000       12.0110           0   0.00000     -0.301140E-02
     17010 MEMB     137      PMPE     H4R      HAL2     0.900000E-01   1.00800           0   0.00000     -0.301140E-02
     17011 MEMB     137      PMPE     H4S      HAL2     0.900000E-01   1.00800           0   0.00000     -0.301140E-02
     17012 MEMB     137      PMPE     C25      CTL2    -0.180000       12.0110           0   0.00000     -0.301140E-02
     17013 MEMB     137      PMPE     H5R      HAL2     0.900000E-01   1.00800           0   0.00000     -0.301140E-02
     17014 MEMB     137      PMPE     H5S      HAL2     0.900000E-01   1.00800           0   0.00000     -0.301140E-02
     17015 MEMB     137      PMPE     C26      CTL2    -0.180000       12.0110           0   0.00000     -0.301140E-02
     17016 MEMB     137      PMPE     H6R      HAL2     0.900000E-01   1.00800           0   0.00000     -0.301140E-02
     17017 MEMB     137      PMPE     H6S      HAL2     0.900000E-01   1.00800           0   0.00000     -0.301140E-02
     17018 MEMB     137      PMPE     C27      CTL2    -0.180000       12.0110           0   0.00000     -0.301140E-02
     17019 MEMB     137      PMPE     H7R      HAL2     0.900000E-01   1.00800           0   0.00000     -0.301140E-02
     17020 MEMB     137      PMPE     H7S      HAL2     0.900000E-01   1.00800           0   0.00000     -0.301140E-02
     17021 MEMB     137      PMPE     C28      CTL2    -0.180000       12.0110           0   0.00000     -0.301140E-02
     17022 MEMB     137      PMPE     H8R      HAL2     0.900000E-01   1.00800           0   0.00000     -0.301140E-02
     17023 MEMB     137      PMPE     H8S      HAL2     0.900000E-01   1.00800           0   0.00000     -0.301140E-02
     17024 MEMB     137      PMPE     C29      CG3RC1  -0.900000E-01   12.0110           0   0.00000     -0.301140E-02
     17025 MEMB     137      PMPE     H9R      HGA1     0.900000E-01   1.00800           0   0.00000     -0.301140E-02
     17026 MEMB     137      PMPE     C217     CG3C31  -0.180000       12.0110           0   0.00000     -0.301140E-02
     17027 MEMB     137      PMPE     H17R     HGA2     0.900000E-01   1.00800           0   0.00000     -0.301140E-02
     17028 MEMB     137      PMPE     H17S     HGA2     0.900000E-01   1.00800           0   0.00000     -0.301140E-02
     17029 MEMB     137      PMPE     C210     CG3RC1  -0.900000E-01   12.0110           0   0.00000     -0.301140E-02
     17030 MEMB     137      PMPE     H10R     HGA1     0.900000E-01   1.00800           0   0.00000     -0.301140E-02
     17031 MEMB     137      PMPE     C211     CTL2    -0.180000       12.0110           0   0.00000     -0.301140E-02
     17032 MEMB     137      PMPE     H11R     HAL2     0.900000E-01   1.00800           0   0.00000     -0.301140E-02
     17033 MEMB     137      PMPE     H11S     HAL2     0.900000E-01   1.00800           0   0.00000     -0.301140E-02
     17034 MEMB     137      PMPE     C212     CTL2    -0.180000       12.0110           0   0.00000     -0.301140E-02
     17035 MEMB     137      PMPE     H12R     HAL2     0.900000E-01   1.00800           0   0.00000     -0.301140E-02
     17036 MEMB     137      PMPE     H12S     HAL2     0.900000E-01   1.00800           0   0.00000     -0.301140E-02
     17037 MEMB     137      PMPE     C213     CTL2    -0.180000       12.0110           0   0.00000     -0.301140E-02
     17038 MEMB     137      PMPE     H13R     HAL2     0.900000E-01   1.00800           0   0.00000     -0.301140E-02
     17039 MEMB     137      PMPE     H13S     HAL2     0.900000E-01   1.00800           0   0.00000     -0.301140E-02
     17040 MEMB     137      PMPE     C214     CTL2    -0.180000       12.0110           0   0.00000     -0.301140E-02
     17041 MEMB     137      PMPE     H14R     HAL2     0.900000E-01   1.00800           0   0.00000     -0.301140E-02
     17042 MEMB     137      PMPE     H14S     HAL2     0.900000E-01   1.00800           0   0.00000     -0.301140E-02
     17043 MEMB     137      PMPE     C215     CTL2    -0.180000       12.0110           0   0.00000     -0.301140E-02
     17044 MEMB     137      PMPE     H15R     HAL2     0.900000E-01   1.00800           0   0.00000     -0.301140E-02
     17045 MEMB     137      PMPE     H15S     HAL2     0.900000E-01   1.00800           0   0.00000     -0.301140E-02
     17046 MEMB     137      PMPE     C216     CTL3    -0.270000       12.0110           0   0.00000     -0.301140E-02
     17047 MEMB     137      PMPE     H16R     HAL3     0.900000E-01   1.00800           0   0.00000     -0.301140E-02
     17048 MEMB     137      PMPE     H16S     HAL3     0.900000E-01   1.00800           0   0.00000     -0.301140E-02
     17049 MEMB     137      PMPE     H16T     HAL3     0.900000E-01   1.00800           0   0.00000     -0.301140E-02
     17050 MEMB     137      PMPE     C33      CTL2    -0.180000       12.0110           0   0.00000     -0.301140E-02
     17051 MEMB     137      PMPE     H3X      HAL2     0.900000E-01   1.00800           0   0.00000     -0.301140E-02
     17052 MEMB     137      PMPE     H3Y      HAL2     0.900000E-01   1.00800           0   0.00000     -0.301140E-02
     17053 MEMB     137      PMPE     C34      CTL2    -0.180000       12.0110           0   0.00000     -0.301140E-02
     17054 MEMB     137      PMPE     H4X      HAL2     0.900000E-01   1.00800           0   0.00000     -0.301140E-02
     17055 MEMB     137      PMPE     H4Y      HAL2     0.900000E-01   1.00800           0   0.00000     -0.301140E-02
     17056 MEMB     137      PMPE     C35      CTL2    -0.180000       12.0110           0   0.00000     -0.301140E-02
     17057 MEMB     137      PMPE     H5X      HAL2     0.900000E-01   1.00800           0   0.00000     -0.301140E-02
     17058 MEMB     137      PMPE     H5Y      HAL2     0.900000E-01   1.00800           0   0.00000     -0.301140E-02
     17059 MEMB     137      PMPE     C36      CTL2    -0.180000       12.0110           0   0.00000     -0.301140E-02
     17060 MEMB     137      PMPE     H6X      HAL2     0.900000E-01   1.00800           0   0.00000     -0.301140E-02
     17061 MEMB     137      PMPE     H6Y      HAL2     0.900000E-01   1.00800           0   0.00000     -0.301140E-02
     17062 MEMB     137      PMPE     C37      CTL2    -0.180000       12.0110           0   0.00000     -0.301140E-02
     17063 MEMB     137      PMPE     H7X      HAL2     0.900000E-01   1.00800           0   0.00000     -0.301140E-02
     17064 MEMB     137      PMPE     H7Y      HAL2     0.900000E-01   1.00800           0   0.00000     -0.301140E-02
     17065 MEMB     137      PMPE     C38      CTL2    -0.180000       12.0110           0   0.00000     -0.301140E-02
     17066 MEMB     137      PMPE     H8X      HAL2     0.900000E-01   1.00800           0   0.00000     -0.301140E-02
     17067 MEMB     137      PMPE     H8Y      HAL2     0.900000E-01   1.00800           0   0.00000     -0.301140E-02
     17068 MEMB     137      PMPE     C39      CTL2    -0.180000       12.0110           0   0.00000     -0.301140E-02
     17069 MEMB     137      PMPE     H9X      HAL2     0.900000E-01   1.00800           0   0.00000     -0.301140E-02
     17070 MEMB     137      PMPE     H9Y      HAL2     0.900000E-01   1.00800           0   0.00000     -0.301140E-02
     17071 MEMB     137      PMPE     C310     CTL2    -0.180000       12.0110           0   0.00000     -0.301140E-02
     17072 MEMB     137      PMPE     H10X     HAL2     0.900000E-01   1.00800           0   0.00000     -0.301140E-02
     17073 MEMB     137      PMPE     H10Y     HAL2     0.900000E-01   1.00800           0   0.00000     -0.301140E-02
     17074 MEMB     137      PMPE     C311     CTL2    -0.180000       12.0110           0   0.00000     -0.301140E-02
     17075 MEMB     137      PMPE     H11X     HAL2     0.900000E-01   1.00800           0   0.00000     -0.301140E-02
     17076 MEMB     137      PMPE     H11Y     HAL2     0.900000E-01   1.00800           0   0.00000     -0.301140E-02
     17077 MEMB     137      PMPE     C312     CTL2    -0.180000       12.0110           0   0.00000     -0.301140E-02
     17078 MEMB     137      PMPE     H12X     HAL2     0.900000E-01   1.00800           0   0.00000     -0.301140E-02
     17079 MEMB     137      PMPE     H12Y     HAL2     0.900000E-01   1.00800           0   0.00000     -0.301140E-02
     17080 MEMB     137      PMPE     C313     CTL2    -0.180000       12.0110           0   0.00000     -0.301140E-02
     17081 MEMB     137      PMPE     H13X     HAL2     0.900000E-01   1.00800           0   0.00000     -0.301140E-02
     17082 MEMB     137      PMPE     H13Y     HAL2     0.900000E-01   1.00800           0   0.00000     -0.301140E-02
     17083 MEMB     137      PMPE     C314     CTL2    -0.180000       12.0110           0   0.00000     -0.301140E-02
     17084 MEMB     137      PMPE     H14X     HAL2     0.900000E-01   1.00800           0   0.00000     -0.301140E-02
     17085 MEMB     137      PMPE     H14Y     HAL2     0.900000E-01   1.00800           0   0.00000     -0.301140E-02
     17086 MEMB     137      PMPE     C315     CTL2    -0.180000       12.0110           0   0.00000     -0.301140E-02
     17087 MEMB     137      PMPE     H15X     HAL2     0.900000E-01   1.00800           0   0.00000     -0.301140E-02
     17088 MEMB     137      PMPE     H15Y     HAL2     0.900000E-01   1.00800           0   0.00000     -0.301140E-02
     17089 MEMB     137      PMPE     C316     CTL3    -0.270000       12.0110           0   0.00000     -0.301140E-02
     17090 MEMB     137      PMPE     H16X     HAL3     0.900000E-01   1.00800           0   0.00000     -0.301140E-02
     17091 MEMB     137      PMPE     H16Y     HAL3     0.900000E-01   1.00800           0   0.00000     -0.301140E-02
     17092 MEMB     137      PMPE     H16Z     HAL3     0.900000E-01   1.00800           0   0.00000     -0.301140E-02
     17093 MEMB     138      POPE     N        NH3L    -0.300000       14.0070           0   0.00000     -0.301140E-02
     17094 MEMB     138      POPE     HN1      HCL      0.330000       1.00800           0   0.00000     -0.301140E-02
     17095 MEMB     138      POPE     HN2      HCL      0.330000       1.00800           0   0.00000     -0.301140E-02
     17096 MEMB     138      POPE     HN3      HCL      0.330000       1.00800           0   0.00000     -0.301140E-02
     17097 MEMB     138      POPE     C12      CTL2     0.130000       12.0110           0   0.00000     -0.301140E-02
     17098 MEMB     138      POPE     H12A     HAL2     0.900000E-01   1.00800           0   0.00000     -0.301140E-02
     17099 MEMB     138      POPE     H12B     HAL2     0.900000E-01   1.00800           0   0.00000     -0.301140E-02
     17100 MEMB     138      POPE     C11      CTL2    -0.800000E-01   12.0110           0   0.00000     -0.301140E-02
     17101 MEMB     138      POPE     H11A     HAL2     0.900000E-01   1.00800           0   0.00000     -0.301140E-02
     17102 MEMB     138      POPE     H11B     HAL2     0.900000E-01   1.00800           0   0.00000     -0.301140E-02
     17103 MEMB     138      POPE     P        PL        1.50000       30.9740           0   0.00000     -0.301140E-02
     17104 MEMB     138      POPE     O13      O2L     -0.780000       15.9994           0   0.00000     -0.301140E-02
     17105 MEMB     138      POPE     O14      O2L     -0.780000       15.9994           0   0.00000     -0.301140E-02
     17106 MEMB     138      POPE     O11      OSLP    -0.570000       15.9994           0   0.00000     -0.301140E-02
     17107 MEMB     138      POPE     O12      OSLP    -0.570000       15.9994           0   0.00000     -0.301140E-02
     17108 MEMB     138      POPE     C1       CTL2    -0.800000E-01   12.0110           0   0.00000     -0.301140E-02
     17109 MEMB     138      POPE     HA       HAL2     0.900000E-01   1.00800           0   0.00000     -0.301140E-02
     17110 MEMB     138      POPE     HB       HAL2     0.900000E-01   1.00800           0   0.00000     -0.301140E-02
     17111 MEMB     138      POPE     C2       CTL1     0.170000       12.0110           0   0.00000     -0.301140E-02
     17112 MEMB     138      POPE     HS       HAL1     0.900000E-01   1.00800           0   0.00000     -0.301140E-02
     17113 MEMB     138      POPE     O21      OSL     -0.490000       15.9994           0   0.00000     -0.301140E-02
     17114 MEMB     138      POPE     C21      CL       0.900000       12.0110           0   0.00000     -0.301140E-02
     17115 MEMB     138      POPE     O22      OBL     -0.630000       15.9994           0   0.00000     -0.301140E-02
     17116 MEMB     138      POPE     C22      CTL2    -0.220000       12.0110           0   0.00000     -0.301140E-02
     17117 MEMB     138      POPE     H2R      HAL2     0.900000E-01   1.00800           0   0.00000     -0.301140E-02
     17118 MEMB     138      POPE     H2S      HAL2     0.900000E-01   1.00800           0   0.00000     -0.301140E-02
     17119 MEMB     138      POPE     C3       CTL2     0.800000E-01   12.0110           0   0.00000     -0.301140E-02
     17120 MEMB     138      POPE     HX       HAL2     0.900000E-01   1.00800           0   0.00000     -0.301140E-02
     17121 MEMB     138      POPE     HY       HAL2     0.900000E-01   1.00800           0   0.00000     -0.301140E-02
     17122 MEMB     138      POPE     O31      OSL     -0.490000       15.9994           0   0.00000     -0.301140E-02
     17123 MEMB     138      POPE     C31      CL       0.900000       12.0110           0   0.00000     -0.301140E-02
     17124 MEMB     138      POPE     O32      OBL     -0.630000       15.9994           0   0.00000     -0.301140E-02
     17125 MEMB     138      POPE     C32      CTL2    -0.220000       12.0110           0   0.00000     -0.301140E-02
     17126 MEMB     138      POPE     H2X      HAL2     0.900000E-01   1.00800           0   0.00000     -0.301140E-02
     17127 MEMB     138      POPE     H2Y      HAL2     0.900000E-01   1.00800           0   0.00000     -0.301140E-02
     17128 MEMB     138      POPE     C23      CTL2    -0.180000       12.0110           0   0.00000     -0.301140E-02
     17129 MEMB     138      POPE     H3R      HAL2     0.900000E-01   1.00800           0   0.00000     -0.301140E-02
     17130 MEMB     138      POPE     H3S      HAL2     0.900000E-01   1.00800           0   0.00000     -0.301140E-02
     17131 MEMB     138      POPE     C24      CTL2    -0.180000       12.0110           0   0.00000     -0.301140E-02
     17132 MEMB     138      POPE     H4R      HAL2     0.900000E-01   1.00800           0   0.00000     -0.301140E-02
     17133 MEMB     138      POPE     H4S      HAL2     0.900000E-01   1.00800           0   0.00000     -0.301140E-02
     17134 MEMB     138      POPE     C25      CTL2    -0.180000       12.0110           0   0.00000     -0.301140E-02
     17135 MEMB     138      POPE     H5R      HAL2     0.900000E-01   1.00800           0   0.00000     -0.301140E-02
     17136 MEMB     138      POPE     H5S      HAL2     0.900000E-01   1.00800           0   0.00000     -0.301140E-02
     17137 MEMB     138      POPE     C26      CTL2    -0.180000       12.0110           0   0.00000     -0.301140E-02
     17138 MEMB     138      POPE     H6R      HAL2     0.900000E-01   1.00800           0   0.00000     -0.301140E-02
     17139 MEMB     138      POPE     H6S      HAL2     0.900000E-01   1.00800           0   0.00000     -0.301140E-02
     17140 MEMB     138      POPE     C27      CTL2    -0.180000       12.0110           0   0.00000     -0.301140E-02
     17141 MEMB     138      POPE     H7R      HAL2     0.900000E-01   1.00800           0   0.00000     -0.301140E-02
     17142 MEMB     138      POPE     H7S      HAL2     0.900000E-01   1.00800           0   0.00000     -0.301140E-02
     17143 MEMB     138      POPE     C28      CTL2    -0.180000       12.0110           0   0.00000     -0.301140E-02
     17144 MEMB     138      POPE     H8R      HAL2     0.900000E-01   1.00800           0   0.00000     -0.301140E-02
     17145 MEMB     138      POPE     H8S      HAL2     0.900000E-01   1.00800           0   0.00000     -0.301140E-02
     17146 MEMB     138      POPE     C29      CEL1    -0.150000       12.0110           0   0.00000     -0.301140E-02
     17147 MEMB     138      POPE     H91      HEL1     0.150000       1.00800           0   0.00000     -0.301140E-02
     17148 MEMB     138      POPE     C210     CEL1    -0.150000       12.0110           0   0.00000     -0.301140E-02
     17149 MEMB     138      POPE     H101     HEL1     0.150000       1.00800           0   0.00000     -0.301140E-02
     17150 MEMB     138      POPE     C211     CTL2    -0.180000       12.0110           0   0.00000     -0.301140E-02
     17151 MEMB     138      POPE     H11R     HAL2     0.900000E-01   1.00800           0   0.00000     -0.301140E-02
     17152 MEMB     138      POPE     H11S     HAL2     0.900000E-01   1.00800           0   0.00000     -0.301140E-02
     17153 MEMB     138      POPE     C212     CTL2    -0.180000       12.0110           0   0.00000     -0.301140E-02
     17154 MEMB     138      POPE     H12R     HAL2     0.900000E-01   1.00800           0   0.00000     -0.301140E-02
     17155 MEMB     138      POPE     H12S     HAL2     0.900000E-01   1.00800           0   0.00000     -0.301140E-02
     17156 MEMB     138      POPE     C213     CTL2    -0.180000       12.0110           0   0.00000     -0.301140E-02
     17157 MEMB     138      POPE     H13R     HAL2     0.900000E-01   1.00800           0   0.00000     -0.301140E-02
     17158 MEMB     138      POPE     H13S     HAL2     0.900000E-01   1.00800           0   0.00000     -0.301140E-02
     17159 MEMB     138      POPE     C214     CTL2    -0.180000       12.0110           0   0.00000     -0.301140E-02
     17160 MEMB     138      POPE     H14R     HAL2     0.900000E-01   1.00800           0   0.00000     -0.301140E-02
     17161 MEMB     138      POPE     H14S     HAL2     0.900000E-01   1.00800           0   0.00000     -0.301140E-02
     17162 MEMB     138      POPE     C215     CTL2    -0.180000       12.0110           0   0.00000     -0.301140E-02
     17163 MEMB     138      POPE     H15R     HAL2     0.900000E-01   1.00800           0   0.00000     -0.301140E-02
     17164 MEMB     138      POPE     H15S     HAL2     0.900000E-01   1.00800           0   0.00000     -0.301140E-02
     17165 MEMB     138      POPE     C216     CTL2    -0.180000       12.0110           0   0.00000     -0.301140E-02
     17166 MEMB     138      POPE     H16R     HAL2     0.900000E-01   1.00800           0   0.00000     -0.301140E-02
     17167 MEMB     138      POPE     H16S     HAL2     0.900000E-01   1.00800           0   0.00000     -0.301140E-02
     17168 MEMB     138      POPE     C217     CTL2    -0.180000       12.0110           0   0.00000     -0.301140E-02
     17169 MEMB     138      POPE     H17R     HAL2     0.900000E-01   1.00800           0   0.00000     -0.301140E-02
     17170 MEMB     138      POPE     H17S     HAL2     0.900000E-01   1.00800           0   0.00000     -0.301140E-02
     17171 MEMB     138      POPE     C218     CTL3    -0.270000       12.0110           0   0.00000     -0.301140E-02
     17172 MEMB     138      POPE     H18R     HAL3     0.900000E-01   1.00800           0   0.00000     -0.301140E-02
     17173 MEMB     138      POPE     H18S     HAL3     0.900000E-01   1.00800           0   0.00000     -0.301140E-02
     17174 MEMB     138      POPE     H18T     HAL3     0.900000E-01   1.00800           0   0.00000     -0.301140E-02
     17175 MEMB     138      POPE     C33      CTL2    -0.180000       12.0110           0   0.00000     -0.301140E-02
     17176 MEMB     138      POPE     H3X      HAL2     0.900000E-01   1.00800           0   0.00000     -0.301140E-02
     17177 MEMB     138      POPE     H3Y      HAL2     0.900000E-01   1.00800           0   0.00000     -0.301140E-02
     17178 MEMB     138      POPE     C34      CTL2    -0.180000       12.0110           0   0.00000     -0.301140E-02
     17179 MEMB     138      POPE     H4X      HAL2     0.900000E-01   1.00800           0   0.00000     -0.301140E-02
     17180 MEMB     138      POPE     H4Y      HAL2     0.900000E-01   1.00800           0   0.00000     -0.301140E-02
     17181 MEMB     138      POPE     C35      CTL2    -0.180000       12.0110           0   0.00000     -0.301140E-02
     17182 MEMB     138      POPE     H5X      HAL2     0.900000E-01   1.00800           0   0.00000     -0.301140E-02
     17183 MEMB     138      POPE     H5Y      HAL2     0.900000E-01   1.00800           0   0.00000     -0.301140E-02
     17184 MEMB     138      POPE     C36      CTL2    -0.180000       12.0110           0   0.00000     -0.301140E-02
     17185 MEMB     138      POPE     H6X      HAL2     0.900000E-01   1.00800           0   0.00000     -0.301140E-02
     17186 MEMB     138      POPE     H6Y      HAL2     0.900000E-01   1.00800           0   0.00000     -0.301140E-02
     17187 MEMB     138      POPE     C37      CTL2    -0.180000       12.0110           0   0.00000     -0.301140E-02
     17188 MEMB     138      POPE     H7X      HAL2     0.900000E-01   1.00800           0   0.00000     -0.301140E-02
     17189 MEMB     138      POPE     H7Y      HAL2     0.900000E-01   1.00800           0   0.00000     -0.301140E-02
     17190 MEMB     138      POPE     C38      CTL2    -0.180000       12.0110           0   0.00000     -0.301140E-02
     17191 MEMB     138      POPE     H8X      HAL2     0.900000E-01   1.00800           0   0.00000     -0.301140E-02
     17192 MEMB     138      POPE     H8Y      HAL2     0.900000E-01   1.00800           0   0.00000     -0.301140E-02
     17193 MEMB     138      POPE     C39      CTL2    -0.180000       12.0110           0   0.00000     -0.301140E-02
     17194 MEMB     138      POPE     H9X      HAL2     0.900000E-01   1.00800           0   0.00000     -0.301140E-02
     17195 MEMB     138      POPE     H9Y      HAL2     0.900000E-01   1.00800           0   0.00000     -0.301140E-02
     17196 MEMB     138      POPE     C310     CTL2    -0.180000       12.0110           0   0.00000     -0.301140E-02
     17197 MEMB     138      POPE     H10X     HAL2     0.900000E-01   1.00800           0   0.00000     -0.301140E-02
     17198 MEMB     138      POPE     H10Y     HAL2     0.900000E-01   1.00800           0   0.00000     -0.301140E-02
     17199 MEMB     138      POPE     C311     CTL2    -0.180000       12.0110           0   0.00000     -0.301140E-02
     17200 MEMB     138      POPE     H11X     HAL2     0.900000E-01   1.00800           0   0.00000     -0.301140E-02
     17201 MEMB     138      POPE     H11Y     HAL2     0.900000E-01   1.00800           0   0.00000     -0.301140E-02
     17202 MEMB     138      POPE     C312     CTL2    -0.180000       12.0110           0   0.00000     -0.301140E-02
     17203 MEMB     138      POPE     H12X     HAL2     0.900000E-01   1.00800           0   0.00000     -0.301140E-02
     17204 MEMB     138      POPE     H12Y     HAL2     0.900000E-01   1.00800           0   0.00000     -0.301140E-02
     17205 MEMB     138      POPE     C313     CTL2    -0.180000       12.0110           0   0.00000     -0.301140E-02
     17206 MEMB     138      POPE     H13X     HAL2     0.900000E-01   1.00800           0   0.00000     -0.301140E-02
     17207 MEMB     138      POPE     H13Y     HAL2     0.900000E-01   1.00800           0   0.00000     -0.301140E-02
     17208 MEMB     138      POPE     C314     CTL2    -0.180000       12.0110           0   0.00000     -0.301140E-02
     17209 MEMB     138      POPE     H14X     HAL2     0.900000E-01   1.00800           0   0.00000     -0.301140E-02
     17210 MEMB     138      POPE     H14Y     HAL2     0.900000E-01   1.00800           0   0.00000     -0.301140E-02
     17211 MEMB     138      POPE     C315     CTL2    -0.180000       12.0110           0   0.00000     -0.301140E-02
     17212 MEMB     138      POPE     H15X     HAL2     0.900000E-01   1.00800           0   0.00000     -0.301140E-02
     17213 MEMB     138      POPE     H15Y     HAL2     0.900000E-01   1.00800           0   0.00000     -0.301140E-02
     17214 MEMB     138      POPE     C316     CTL3    -0.270000       12.0110           0   0.00000     -0.301140E-02
     17215 MEMB     138      POPE     H16X     HAL3     0.900000E-01   1.00800           0   0.00000     -0.301140E-02
     17216 MEMB     138      POPE     H16Y     HAL3     0.900000E-01   1.00800           0   0.00000     -0.301140E-02
     17217 MEMB     138      POPE     H16Z     HAL3     0.900000E-01   1.00800           0   0.00000     -0.301140E-02
     17218 MEMB     139      PMPE     N        NH3L    -0.300000       14.0070           0   0.00000     -0.301140E-02
     17219 MEMB     139      PMPE     HN1      HCL      0.330000       1.00800           0   0.00000     -0.301140E-02
     17220 MEMB     139      PMPE     HN2      HCL      0.330000       1.00800           0   0.00000     -0.301140E-02
     17221 MEMB     139      PMPE     HN3      HCL      0.330000       1.00800           0   0.00000     -0.301140E-02
     17222 MEMB     139      PMPE     C12      CTL2     0.130000       12.0110           0   0.00000     -0.301140E-02
     17223 MEMB     139      PMPE     H12A     HAL2     0.900000E-01   1.00800           0   0.00000     -0.301140E-02
     17224 MEMB     139      PMPE     H12B     HAL2     0.900000E-01   1.00800           0   0.00000     -0.301140E-02
     17225 MEMB     139      PMPE     C11      CTL2    -0.800000E-01   12.0110           0   0.00000     -0.301140E-02
     17226 MEMB     139      PMPE     H11A     HAL2     0.900000E-01   1.00800           0   0.00000     -0.301140E-02
     17227 MEMB     139      PMPE     H11B     HAL2     0.900000E-01   1.00800           0   0.00000     -0.301140E-02
     17228 MEMB     139      PMPE     P        PL        1.50000       30.9740           0   0.00000     -0.301140E-02
     17229 MEMB     139      PMPE     O13      O2L     -0.780000       15.9994           0   0.00000     -0.301140E-02
     17230 MEMB     139      PMPE     O14      O2L     -0.780000       15.9994           0   0.00000     -0.301140E-02
     17231 MEMB     139      PMPE     O11      OSLP    -0.570000       15.9994           0   0.00000     -0.301140E-02
     17232 MEMB     139      PMPE     O12      OSLP    -0.570000       15.9994           0   0.00000     -0.301140E-02
     17233 MEMB     139      PMPE     C1       CTL2    -0.800000E-01   12.0110           0   0.00000     -0.301140E-02
     17234 MEMB     139      PMPE     HA       HAL2     0.900000E-01   1.00800           0   0.00000     -0.301140E-02
     17235 MEMB     139      PMPE     HB       HAL2     0.900000E-01   1.00800           0   0.00000     -0.301140E-02
     17236 MEMB     139      PMPE     C2       CTL1     0.170000       12.0110           0   0.00000     -0.301140E-02
     17237 MEMB     139      PMPE     HS       HAL1     0.900000E-01   1.00800           0   0.00000     -0.301140E-02
     17238 MEMB     139      PMPE     O21      OSL     -0.490000       15.9994           0   0.00000     -0.301140E-02
     17239 MEMB     139      PMPE     C21      CL       0.900000       12.0110           0   0.00000     -0.301140E-02
     17240 MEMB     139      PMPE     O22      OBL     -0.630000       15.9994           0   0.00000     -0.301140E-02
     17241 MEMB     139      PMPE     C22      CTL2    -0.220000       12.0110           0   0.00000     -0.301140E-02
     17242 MEMB     139      PMPE     H2R      HAL2     0.900000E-01   1.00800           0   0.00000     -0.301140E-02
     17243 MEMB     139      PMPE     H2S      HAL2     0.900000E-01   1.00800           0   0.00000     -0.301140E-02
     17244 MEMB     139      PMPE     C3       CTL2     0.800000E-01   12.0110           0   0.00000     -0.301140E-02
     17245 MEMB     139      PMPE     HX       HAL2     0.900000E-01   1.00800           0   0.00000     -0.301140E-02
     17246 MEMB     139      PMPE     HY       HAL2     0.900000E-01   1.00800           0   0.00000     -0.301140E-02
     17247 MEMB     139      PMPE     O31      OSL     -0.490000       15.9994           0   0.00000     -0.301140E-02
     17248 MEMB     139      PMPE     C31      CL       0.900000       12.0110           0   0.00000     -0.301140E-02
     17249 MEMB     139      PMPE     O32      OBL     -0.630000       15.9994           0   0.00000     -0.301140E-02
     17250 MEMB     139      PMPE     C32      CTL2    -0.220000       12.0110           0   0.00000     -0.301140E-02
     17251 MEMB     139      PMPE     H2X      HAL2     0.900000E-01   1.00800           0   0.00000     -0.301140E-02
     17252 MEMB     139      PMPE     H2Y      HAL2     0.900000E-01   1.00800           0   0.00000     -0.301140E-02
     17253 MEMB     139      PMPE     C23      CTL2    -0.180000       12.0110           0   0.00000     -0.301140E-02
     17254 MEMB     139      PMPE     H3R      HAL2     0.900000E-01   1.00800           0   0.00000     -0.301140E-02
     17255 MEMB     139      PMPE     H3S      HAL2     0.900000E-01   1.00800           0   0.00000     -0.301140E-02
     17256 MEMB     139      PMPE     C24      CTL2    -0.180000       12.0110           0   0.00000     -0.301140E-02
     17257 MEMB     139      PMPE     H4R      HAL2     0.900000E-01   1.00800           0   0.00000     -0.301140E-02
     17258 MEMB     139      PMPE     H4S      HAL2     0.900000E-01   1.00800           0   0.00000     -0.301140E-02
     17259 MEMB     139      PMPE     C25      CTL2    -0.180000       12.0110           0   0.00000     -0.301140E-02
     17260 MEMB     139      PMPE     H5R      HAL2     0.900000E-01   1.00800           0   0.00000     -0.301140E-02
     17261 MEMB     139      PMPE     H5S      HAL2     0.900000E-01   1.00800           0   0.00000     -0.301140E-02
     17262 MEMB     139      PMPE     C26      CTL2    -0.180000       12.0110           0   0.00000     -0.301140E-02
     17263 MEMB     139      PMPE     H6R      HAL2     0.900000E-01   1.00800           0   0.00000     -0.301140E-02
     17264 MEMB     139      PMPE     H6S      HAL2     0.900000E-01   1.00800           0   0.00000     -0.301140E-02
     17265 MEMB     139      PMPE     C27      CTL2    -0.180000       12.0110           0   0.00000     -0.301140E-02
     17266 MEMB     139      PMPE     H7R      HAL2     0.900000E-01   1.00800           0   0.00000     -0.301140E-02
     17267 MEMB     139      PMPE     H7S      HAL2     0.900000E-01   1.00800           0   0.00000     -0.301140E-02
     17268 MEMB     139      PMPE     C28      CTL2    -0.180000       12.0110           0   0.00000     -0.301140E-02
     17269 MEMB     139      PMPE     H8R      HAL2     0.900000E-01   1.00800           0   0.00000     -0.301140E-02
     17270 MEMB     139      PMPE     H8S      HAL2     0.900000E-01   1.00800           0   0.00000     -0.301140E-02
     17271 MEMB     139      PMPE     C29      CG3RC1  -0.900000E-01   12.0110           0   0.00000     -0.301140E-02
     17272 MEMB     139      PMPE     H9R      HGA1     0.900000E-01   1.00800           0   0.00000     -0.301140E-02
     17273 MEMB     139      PMPE     C217     CG3C31  -0.180000       12.0110           0   0.00000     -0.301140E-02
     17274 MEMB     139      PMPE     H17R     HGA2     0.900000E-01   1.00800           0   0.00000     -0.301140E-02
     17275 MEMB     139      PMPE     H17S     HGA2     0.900000E-01   1.00800           0   0.00000     -0.301140E-02
     17276 MEMB     139      PMPE     C210     CG3RC1  -0.900000E-01   12.0110           0   0.00000     -0.301140E-02
     17277 MEMB     139      PMPE     H10R     HGA1     0.900000E-01   1.00800           0   0.00000     -0.301140E-02
     17278 MEMB     139      PMPE     C211     CTL2    -0.180000       12.0110           0   0.00000     -0.301140E-02
     17279 MEMB     139      PMPE     H11R     HAL2     0.900000E-01   1.00800           0   0.00000     -0.301140E-02
     17280 MEMB     139      PMPE     H11S     HAL2     0.900000E-01   1.00800           0   0.00000     -0.301140E-02
     17281 MEMB     139      PMPE     C212     CTL2    -0.180000       12.0110           0   0.00000     -0.301140E-02
     17282 MEMB     139      PMPE     H12R     HAL2     0.900000E-01   1.00800           0   0.00000     -0.301140E-02
     17283 MEMB     139      PMPE     H12S     HAL2     0.900000E-01   1.00800           0   0.00000     -0.301140E-02
     17284 MEMB     139      PMPE     C213     CTL2    -0.180000       12.0110           0   0.00000     -0.301140E-02
     17285 MEMB     139      PMPE     H13R     HAL2     0.900000E-01   1.00800           0   0.00000     -0.301140E-02
     17286 MEMB     139      PMPE     H13S     HAL2     0.900000E-01   1.00800           0   0.00000     -0.301140E-02
     17287 MEMB     139      PMPE     C214     CTL2    -0.180000       12.0110           0   0.00000     -0.301140E-02
     17288 MEMB     139      PMPE     H14R     HAL2     0.900000E-01   1.00800           0   0.00000     -0.301140E-02
     17289 MEMB     139      PMPE     H14S     HAL2     0.900000E-01   1.00800           0   0.00000     -0.301140E-02
     17290 MEMB     139      PMPE     C215     CTL2    -0.180000       12.0110           0   0.00000     -0.301140E-02
     17291 MEMB     139      PMPE     H15R     HAL2     0.900000E-01   1.00800           0   0.00000     -0.301140E-02
     17292 MEMB     139      PMPE     H15S     HAL2     0.900000E-01   1.00800           0   0.00000     -0.301140E-02
     17293 MEMB     139      PMPE     C216     CTL3    -0.270000       12.0110           0   0.00000     -0.301140E-02
     17294 MEMB     139      PMPE     H16R     HAL3     0.900000E-01   1.00800           0   0.00000     -0.301140E-02
     17295 MEMB     139      PMPE     H16S     HAL3     0.900000E-01   1.00800           0   0.00000     -0.301140E-02
     17296 MEMB     139      PMPE     H16T     HAL3     0.900000E-01   1.00800           0   0.00000     -0.301140E-02
     17297 MEMB     139      PMPE     C33      CTL2    -0.180000       12.0110           0   0.00000     -0.301140E-02
     17298 MEMB     139      PMPE     H3X      HAL2     0.900000E-01   1.00800           0   0.00000     -0.301140E-02
     17299 MEMB     139      PMPE     H3Y      HAL2     0.900000E-01   1.00800           0   0.00000     -0.301140E-02
     17300 MEMB     139      PMPE     C34      CTL2    -0.180000       12.0110           0   0.00000     -0.301140E-02
     17301 MEMB     139      PMPE     H4X      HAL2     0.900000E-01   1.00800           0   0.00000     -0.301140E-02
     17302 MEMB     139      PMPE     H4Y      HAL2     0.900000E-01   1.00800           0   0.00000     -0.301140E-02
     17303 MEMB     139      PMPE     C35      CTL2    -0.180000       12.0110           0   0.00000     -0.301140E-02
     17304 MEMB     139      PMPE     H5X      HAL2     0.900000E-01   1.00800           0   0.00000     -0.301140E-02
     17305 MEMB     139      PMPE     H5Y      HAL2     0.900000E-01   1.00800           0   0.00000     -0.301140E-02
     17306 MEMB     139      PMPE     C36      CTL2    -0.180000       12.0110           0   0.00000     -0.301140E-02
     17307 MEMB     139      PMPE     H6X      HAL2     0.900000E-01   1.00800           0   0.00000     -0.301140E-02
     17308 MEMB     139      PMPE     H6Y      HAL2     0.900000E-01   1.00800           0   0.00000     -0.301140E-02
     17309 MEMB     139      PMPE     C37      CTL2    -0.180000       12.0110           0   0.00000     -0.301140E-02
     17310 MEMB     139      PMPE     H7X      HAL2     0.900000E-01   1.00800           0   0.00000     -0.301140E-02
     17311 MEMB     139      PMPE     H7Y      HAL2     0.900000E-01   1.00800           0   0.00000     -0.301140E-02
     17312 MEMB     139      PMPE     C38      CTL2    -0.180000       12.0110           0   0.00000     -0.301140E-02
     17313 MEMB     139      PMPE     H8X      HAL2     0.900000E-01   1.00800           0   0.00000     -0.301140E-02
     17314 MEMB     139      PMPE     H8Y      HAL2     0.900000E-01   1.00800           0   0.00000     -0.301140E-02
     17315 MEMB     139      PMPE     C39      CTL2    -0.180000       12.0110           0   0.00000     -0.301140E-02
     17316 MEMB     139      PMPE     H9X      HAL2     0.900000E-01   1.00800           0   0.00000     -0.301140E-02
     17317 MEMB     139      PMPE     H9Y      HAL2     0.900000E-01   1.00800           0   0.00000     -0.301140E-02
     17318 MEMB     139      PMPE     C310     CTL2    -0.180000       12.0110           0   0.00000     -0.301140E-02
     17319 MEMB     139      PMPE     H10X     HAL2     0.900000E-01   1.00800           0   0.00000     -0.301140E-02
     17320 MEMB     139      PMPE     H10Y     HAL2     0.900000E-01   1.00800           0   0.00000     -0.301140E-02
     17321 MEMB     139      PMPE     C311     CTL2    -0.180000       12.0110           0   0.00000     -0.301140E-02
     17322 MEMB     139      PMPE     H11X     HAL2     0.900000E-01   1.00800           0   0.00000     -0.301140E-02
     17323 MEMB     139      PMPE     H11Y     HAL2     0.900000E-01   1.00800           0   0.00000     -0.301140E-02
     17324 MEMB     139      PMPE     C312     CTL2    -0.180000       12.0110           0   0.00000     -0.301140E-02
     17325 MEMB     139      PMPE     H12X     HAL2     0.900000E-01   1.00800           0   0.00000     -0.301140E-02
     17326 MEMB     139      PMPE     H12Y     HAL2     0.900000E-01   1.00800           0   0.00000     -0.301140E-02
     17327 MEMB     139      PMPE     C313     CTL2    -0.180000       12.0110           0   0.00000     -0.301140E-02
     17328 MEMB     139      PMPE     H13X     HAL2     0.900000E-01   1.00800           0   0.00000     -0.301140E-02
     17329 MEMB     139      PMPE     H13Y     HAL2     0.900000E-01   1.00800           0   0.00000     -0.301140E-02
     17330 MEMB     139      PMPE     C314     CTL2    -0.180000       12.0110           0   0.00000     -0.301140E-02
     17331 MEMB     139      PMPE     H14X     HAL2     0.900000E-01   1.00800           0   0.00000     -0.301140E-02
     17332 MEMB     139      PMPE     H14Y     HAL2     0.900000E-01   1.00800           0   0.00000     -0.301140E-02
     17333 MEMB     139      PMPE     C315     CTL2    -0.180000       12.0110           0   0.00000     -0.301140E-02
     17334 MEMB     139      PMPE     H15X     HAL2     0.900000E-01   1.00800           0   0.00000     -0.301140E-02
     17335 MEMB     139      PMPE     H15Y     HAL2     0.900000E-01   1.00800           0   0.00000     -0.301140E-02
     17336 MEMB     139      PMPE     C316     CTL3    -0.270000       12.0110           0   0.00000     -0.301140E-02
     17337 MEMB     139      PMPE     H16X     HAL3     0.900000E-01   1.00800           0   0.00000     -0.301140E-02
     17338 MEMB     139      PMPE     H16Y     HAL3     0.900000E-01   1.00800           0   0.00000     -0.301140E-02
     17339 MEMB     139      PMPE     H16Z     HAL3     0.900000E-01   1.00800           0   0.00000     -0.301140E-02
     17340 MEMB     140      PMPG     C13      CTL2     0.500000E-01   12.0110           0   0.00000     -0.301140E-02
     17341 MEMB     140      PMPG     H13A     HAL2     0.900000E-01   1.00800           0   0.00000     -0.301140E-02
     17342 MEMB     140      PMPG     H13B     HAL2     0.900000E-01   1.00800           0   0.00000     -0.301140E-02
     17343 MEMB     140      PMPG     OC3      OHL     -0.660000       15.9994           0   0.00000     -0.301140E-02
     17344 MEMB     140      PMPG     HO3      HOL      0.430000       1.00800           0   0.00000     -0.301140E-02
     17345 MEMB     140      PMPG     C12      CTL1     0.140000       12.0110           0   0.00000     -0.301140E-02
     17346 MEMB     140      PMPG     H12A     HAL1     0.900000E-01   1.00800           0   0.00000     -0.301140E-02
     17347 MEMB     140      PMPG     OC2      OHL     -0.660000       15.9994           0   0.00000     -0.301140E-02
     17348 MEMB     140      PMPG     HO2      HOL      0.430000       1.00800           0   0.00000     -0.301140E-02
     17349 MEMB     140      PMPG     C11      CTL2    -0.800000E-01   12.0110           0   0.00000     -0.301140E-02
     17350 MEMB     140      PMPG     H11A     HAL2     0.900000E-01   1.00800           0   0.00000     -0.301140E-02
     17351 MEMB     140      PMPG     H11B     HAL2     0.900000E-01   1.00800           0   0.00000     -0.301140E-02
     17352 MEMB     140      PMPG     P        PL        1.50000       30.9740           0   0.00000     -0.301140E-02
     17353 MEMB     140      PMPG     O13      O2L     -0.780000       15.9994           0   0.00000     -0.301140E-02
     17354 MEMB     140      PMPG     O14      O2L     -0.780000       15.9994           0   0.00000     -0.301140E-02
     17355 MEMB     140      PMPG     O11      OSLP    -0.570000       15.9994           0   0.00000     -0.301140E-02
     17356 MEMB     140      PMPG     O12      OSLP    -0.570000       15.9994           0   0.00000     -0.301140E-02
     17357 MEMB     140      PMPG     C1       CTL2    -0.800000E-01   12.0110           0   0.00000     -0.301140E-02
     17358 MEMB     140      PMPG     HA       HAL2     0.900000E-01   1.00800           0   0.00000     -0.301140E-02
     17359 MEMB     140      PMPG     HB       HAL2     0.900000E-01   1.00800           0   0.00000     -0.301140E-02
     17360 MEMB     140      PMPG     C2       CTL1     0.170000       12.0110           0   0.00000     -0.301140E-02
     17361 MEMB     140      PMPG     HS       HAL1     0.900000E-01   1.00800           0   0.00000     -0.301140E-02
     17362 MEMB     140      PMPG     O21      OSL     -0.490000       15.9994           0   0.00000     -0.301140E-02
     17363 MEMB     140      PMPG     C21      CL       0.900000       12.0110           0   0.00000     -0.301140E-02
     17364 MEMB     140      PMPG     O22      OBL     -0.630000       15.9994           0   0.00000     -0.301140E-02
     17365 MEMB     140      PMPG     C22      CTL2    -0.220000       12.0110           0   0.00000     -0.301140E-02
     17366 MEMB     140      PMPG     H2R      HAL2     0.900000E-01   1.00800           0   0.00000     -0.301140E-02
     17367 MEMB     140      PMPG     H2S      HAL2     0.900000E-01   1.00800           0   0.00000     -0.301140E-02
     17368 MEMB     140      PMPG     C3       CTL2     0.800000E-01   12.0110           0   0.00000     -0.301140E-02
     17369 MEMB     140      PMPG     HX       HAL2     0.900000E-01   1.00800           0   0.00000     -0.301140E-02
     17370 MEMB     140      PMPG     HY       HAL2     0.900000E-01   1.00800           0   0.00000     -0.301140E-02
     17371 MEMB     140      PMPG     O31      OSL     -0.490000       15.9994           0   0.00000     -0.301140E-02
     17372 MEMB     140      PMPG     C31      CL       0.900000       12.0110           0   0.00000     -0.301140E-02
     17373 MEMB     140      PMPG     O32      OBL     -0.630000       15.9994           0   0.00000     -0.301140E-02
     17374 MEMB     140      PMPG     C32      CTL2    -0.220000       12.0110           0   0.00000     -0.301140E-02
     17375 MEMB     140      PMPG     H2X      HAL2     0.900000E-01   1.00800           0   0.00000     -0.301140E-02
     17376 MEMB     140      PMPG     H2Y      HAL2     0.900000E-01   1.00800           0   0.00000     -0.301140E-02
     17377 MEMB     140      PMPG     C23      CTL2    -0.180000       12.0110           0   0.00000     -0.301140E-02
     17378 MEMB     140      PMPG     H3R      HAL2     0.900000E-01   1.00800           0   0.00000     -0.301140E-02
     17379 MEMB     140      PMPG     H3S      HAL2     0.900000E-01   1.00800           0   0.00000     -0.301140E-02
     17380 MEMB     140      PMPG     C24      CTL2    -0.180000       12.0110           0   0.00000     -0.301140E-02
     17381 MEMB     140      PMPG     H4R      HAL2     0.900000E-01   1.00800           0   0.00000     -0.301140E-02
     17382 MEMB     140      PMPG     H4S      HAL2     0.900000E-01   1.00800           0   0.00000     -0.301140E-02
     17383 MEMB     140      PMPG     C25      CTL2    -0.180000       12.0110           0   0.00000     -0.301140E-02
     17384 MEMB     140      PMPG     H5R      HAL2     0.900000E-01   1.00800           0   0.00000     -0.301140E-02
     17385 MEMB     140      PMPG     H5S      HAL2     0.900000E-01   1.00800           0   0.00000     -0.301140E-02
     17386 MEMB     140      PMPG     C26      CTL2    -0.180000       12.0110           0   0.00000     -0.301140E-02
     17387 MEMB     140      PMPG     H6R      HAL2     0.900000E-01   1.00800           0   0.00000     -0.301140E-02
     17388 MEMB     140      PMPG     H6S      HAL2     0.900000E-01   1.00800           0   0.00000     -0.301140E-02
     17389 MEMB     140      PMPG     C27      CTL2    -0.180000       12.0110           0   0.00000     -0.301140E-02
     17390 MEMB     140      PMPG     H7R      HAL2     0.900000E-01   1.00800           0   0.00000     -0.301140E-02
     17391 MEMB     140      PMPG     H7S      HAL2     0.900000E-01   1.00800           0   0.00000     -0.301140E-02
     17392 MEMB     140      PMPG     C28      CTL2    -0.180000       12.0110           0   0.00000     -0.301140E-02
     17393 MEMB     140      PMPG     H8R      HAL2     0.900000E-01   1.00800           0   0.00000     -0.301140E-02
     17394 MEMB     140      PMPG     H8S      HAL2     0.900000E-01   1.00800           0   0.00000     -0.301140E-02
     17395 MEMB     140      PMPG     C29      CG3RC1  -0.900000E-01   12.0110           0   0.00000     -0.301140E-02
     17396 MEMB     140      PMPG     H9R      HGA1     0.900000E-01   1.00800           0   0.00000     -0.301140E-02
     17397 MEMB     140      PMPG     C217     CG3C31  -0.180000       12.0110           0   0.00000     -0.301140E-02
     17398 MEMB     140      PMPG     H17R     HGA2     0.900000E-01   1.00800           0   0.00000     -0.301140E-02
     17399 MEMB     140      PMPG     H17S     HGA2     0.900000E-01   1.00800           0   0.00000     -0.301140E-02
     17400 MEMB     140      PMPG     C210     CG3RC1  -0.900000E-01   12.0110           0   0.00000     -0.301140E-02
     17401 MEMB     140      PMPG     H10R     HGA1     0.900000E-01   1.00800           0   0.00000     -0.301140E-02
     17402 MEMB     140      PMPG     C211     CTL2    -0.180000       12.0110           0   0.00000     -0.301140E-02
     17403 MEMB     140      PMPG     H11R     HAL2     0.900000E-01   1.00800           0   0.00000     -0.301140E-02
     17404 MEMB     140      PMPG     H11S     HAL2     0.900000E-01   1.00800           0   0.00000     -0.301140E-02
     17405 MEMB     140      PMPG     C212     CTL2    -0.180000       12.0110           0   0.00000     -0.301140E-02
     17406 MEMB     140      PMPG     H12R     HAL2     0.900000E-01   1.00800           0   0.00000     -0.301140E-02
     17407 MEMB     140      PMPG     H12S     HAL2     0.900000E-01   1.00800           0   0.00000     -0.301140E-02
     17408 MEMB     140      PMPG     C213     CTL2    -0.180000       12.0110           0   0.00000     -0.301140E-02
     17409 MEMB     140      PMPG     H13R     HAL2     0.900000E-01   1.00800           0   0.00000     -0.301140E-02
     17410 MEMB     140      PMPG     H13S     HAL2     0.900000E-01   1.00800           0   0.00000     -0.301140E-02
     17411 MEMB     140      PMPG     C214     CTL2    -0.180000       12.0110           0   0.00000     -0.301140E-02
     17412 MEMB     140      PMPG     H14R     HAL2     0.900000E-01   1.00800           0   0.00000     -0.301140E-02
     17413 MEMB     140      PMPG     H14S     HAL2     0.900000E-01   1.00800           0   0.00000     -0.301140E-02
     17414 MEMB     140      PMPG     C215     CTL2    -0.180000       12.0110           0   0.00000     -0.301140E-02
     17415 MEMB     140      PMPG     H15R     HAL2     0.900000E-01   1.00800           0   0.00000     -0.301140E-02
     17416 MEMB     140      PMPG     H15S     HAL2     0.900000E-01   1.00800           0   0.00000     -0.301140E-02
     17417 MEMB     140      PMPG     C216     CTL3    -0.270000       12.0110           0   0.00000     -0.301140E-02
     17418 MEMB     140      PMPG     H16R     HAL3     0.900000E-01   1.00800           0   0.00000     -0.301140E-02
     17419 MEMB     140      PMPG     H16S     HAL3     0.900000E-01   1.00800           0   0.00000     -0.301140E-02
     17420 MEMB     140      PMPG     H16T     HAL3     0.900000E-01   1.00800           0   0.00000     -0.301140E-02
     17421 MEMB     140      PMPG     C33      CTL2    -0.180000       12.0110           0   0.00000     -0.301140E-02
     17422 MEMB     140      PMPG     H3X      HAL2     0.900000E-01   1.00800           0   0.00000     -0.301140E-02
     17423 MEMB     140      PMPG     H3Y      HAL2     0.900000E-01   1.00800           0   0.00000     -0.301140E-02
     17424 MEMB     140      PMPG     C34      CTL2    -0.180000       12.0110           0   0.00000     -0.301140E-02
     17425 MEMB     140      PMPG     H4X      HAL2     0.900000E-01   1.00800           0   0.00000     -0.301140E-02
     17426 MEMB     140      PMPG     H4Y      HAL2     0.900000E-01   1.00800           0   0.00000     -0.301140E-02
     17427 MEMB     140      PMPG     C35      CTL2    -0.180000       12.0110           0   0.00000     -0.301140E-02
     17428 MEMB     140      PMPG     H5X      HAL2     0.900000E-01   1.00800           0   0.00000     -0.301140E-02
     17429 MEMB     140      PMPG     H5Y      HAL2     0.900000E-01   1.00800           0   0.00000     -0.301140E-02
     17430 MEMB     140      PMPG     C36      CTL2    -0.180000       12.0110           0   0.00000     -0.301140E-02
     17431 MEMB     140      PMPG     H6X      HAL2     0.900000E-01   1.00800           0   0.00000     -0.301140E-02
     17432 MEMB     140      PMPG     H6Y      HAL2     0.900000E-01   1.00800           0   0.00000     -0.301140E-02
     17433 MEMB     140      PMPG     C37      CTL2    -0.180000       12.0110           0   0.00000     -0.301140E-02
     17434 MEMB     140      PMPG     H7X      HAL2     0.900000E-01   1.00800           0   0.00000     -0.301140E-02
     17435 MEMB     140      PMPG     H7Y      HAL2     0.900000E-01   1.00800           0   0.00000     -0.301140E-02
     17436 MEMB     140      PMPG     C38      CTL2    -0.180000       12.0110           0   0.00000     -0.301140E-02
     17437 MEMB     140      PMPG     H8X      HAL2     0.900000E-01   1.00800           0   0.00000     -0.301140E-02
     17438 MEMB     140      PMPG     H8Y      HAL2     0.900000E-01   1.00800           0   0.00000     -0.301140E-02
     17439 MEMB     140      PMPG     C39      CTL2    -0.180000       12.0110           0   0.00000     -0.301140E-02
     17440 MEMB     140      PMPG     H9X      HAL2     0.900000E-01   1.00800           0   0.00000     -0.301140E-02
     17441 MEMB     140      PMPG     H9Y      HAL2     0.900000E-01   1.00800           0   0.00000     -0.301140E-02
     17442 MEMB     140      PMPG     C310     CTL2    -0.180000       12.0110           0   0.00000     -0.301140E-02
     17443 MEMB     140      PMPG     H10X     HAL2     0.900000E-01   1.00800           0   0.00000     -0.301140E-02
     17444 MEMB     140      PMPG     H10Y     HAL2     0.900000E-01   1.00800           0   0.00000     -0.301140E-02
     17445 MEMB     140      PMPG     C311     CTL2    -0.180000       12.0110           0   0.00000     -0.301140E-02
     17446 MEMB     140      PMPG     H11X     HAL2     0.900000E-01   1.00800           0   0.00000     -0.301140E-02
     17447 MEMB     140      PMPG     H11Y     HAL2     0.900000E-01   1.00800           0   0.00000     -0.301140E-02
     17448 MEMB     140      PMPG     C312     CTL2    -0.180000       12.0110           0   0.00000     -0.301140E-02
     17449 MEMB     140      PMPG     H12X     HAL2     0.900000E-01   1.00800           0   0.00000     -0.301140E-02
     17450 MEMB     140      PMPG     H12Y     HAL2     0.900000E-01   1.00800           0   0.00000     -0.301140E-02
     17451 MEMB     140      PMPG     C313     CTL2    -0.180000       12.0110           0   0.00000     -0.301140E-02
     17452 MEMB     140      PMPG     H13X     HAL2     0.900000E-01   1.00800           0   0.00000     -0.301140E-02
     17453 MEMB     140      PMPG     H13Y     HAL2     0.900000E-01   1.00800           0   0.00000     -0.301140E-02
     17454 MEMB     140      PMPG     C314     CTL2    -0.180000       12.0110           0   0.00000     -0.301140E-02
     17455 MEMB     140      PMPG     H14X     HAL2     0.900000E-01   1.00800           0   0.00000     -0.301140E-02
     17456 MEMB     140      PMPG     H14Y     HAL2     0.900000E-01   1.00800           0   0.00000     -0.301140E-02
     17457 MEMB     140      PMPG     C315     CTL2    -0.180000       12.0110           0   0.00000     -0.301140E-02
     17458 MEMB     140      PMPG     H15X     HAL2     0.900000E-01   1.00800           0   0.00000     -0.301140E-02
     17459 MEMB     140      PMPG     H15Y     HAL2     0.900000E-01   1.00800           0   0.00000     -0.301140E-02
     17460 MEMB     140      PMPG     C316     CTL3    -0.270000       12.0110           0   0.00000     -0.301140E-02
     17461 MEMB     140      PMPG     H16X     HAL3     0.900000E-01   1.00800           0   0.00000     -0.301140E-02
     17462 MEMB     140      PMPG     H16Y     HAL3     0.900000E-01   1.00800           0   0.00000     -0.301140E-02
     17463 MEMB     140      PMPG     H16Z     HAL3     0.900000E-01   1.00800           0   0.00000     -0.301140E-02
     17464 MEMB     141      PMPE     N        NH3L    -0.300000       14.0070           0   0.00000     -0.301140E-02
     17465 MEMB     141      PMPE     HN1      HCL      0.330000       1.00800           0   0.00000     -0.301140E-02
     17466 MEMB     141      PMPE     HN2      HCL      0.330000       1.00800           0   0.00000     -0.301140E-02
     17467 MEMB     141      PMPE     HN3      HCL      0.330000       1.00800           0   0.00000     -0.301140E-02
     17468 MEMB     141      PMPE     C12      CTL2     0.130000       12.0110           0   0.00000     -0.301140E-02
     17469 MEMB     141      PMPE     H12A     HAL2     0.900000E-01   1.00800           0   0.00000     -0.301140E-02
     17470 MEMB     141      PMPE     H12B     HAL2     0.900000E-01   1.00800           0   0.00000     -0.301140E-02
     17471 MEMB     141      PMPE     C11      CTL2    -0.800000E-01   12.0110           0   0.00000     -0.301140E-02
     17472 MEMB     141      PMPE     H11A     HAL2     0.900000E-01   1.00800           0   0.00000     -0.301140E-02
     17473 MEMB     141      PMPE     H11B     HAL2     0.900000E-01   1.00800           0   0.00000     -0.301140E-02
     17474 MEMB     141      PMPE     P        PL        1.50000       30.9740           0   0.00000     -0.301140E-02
     17475 MEMB     141      PMPE     O13      O2L     -0.780000       15.9994           0   0.00000     -0.301140E-02
     17476 MEMB     141      PMPE     O14      O2L     -0.780000       15.9994           0   0.00000     -0.301140E-02
     17477 MEMB     141      PMPE     O11      OSLP    -0.570000       15.9994           0   0.00000     -0.301140E-02
     17478 MEMB     141      PMPE     O12      OSLP    -0.570000       15.9994           0   0.00000     -0.301140E-02
     17479 MEMB     141      PMPE     C1       CTL2    -0.800000E-01   12.0110           0   0.00000     -0.301140E-02
     17480 MEMB     141      PMPE     HA       HAL2     0.900000E-01   1.00800           0   0.00000     -0.301140E-02
     17481 MEMB     141      PMPE     HB       HAL2     0.900000E-01   1.00800           0   0.00000     -0.301140E-02
     17482 MEMB     141      PMPE     C2       CTL1     0.170000       12.0110           0   0.00000     -0.301140E-02
     17483 MEMB     141      PMPE     HS       HAL1     0.900000E-01   1.00800           0   0.00000     -0.301140E-02
     17484 MEMB     141      PMPE     O21      OSL     -0.490000       15.9994           0   0.00000     -0.301140E-02
     17485 MEMB     141      PMPE     C21      CL       0.900000       12.0110           0   0.00000     -0.301140E-02
     17486 MEMB     141      PMPE     O22      OBL     -0.630000       15.9994           0   0.00000     -0.301140E-02
     17487 MEMB     141      PMPE     C22      CTL2    -0.220000       12.0110           0   0.00000     -0.301140E-02
     17488 MEMB     141      PMPE     H2R      HAL2     0.900000E-01   1.00800           0   0.00000     -0.301140E-02
     17489 MEMB     141      PMPE     H2S      HAL2     0.900000E-01   1.00800           0   0.00000     -0.301140E-02
     17490 MEMB     141      PMPE     C3       CTL2     0.800000E-01   12.0110           0   0.00000     -0.301140E-02
     17491 MEMB     141      PMPE     HX       HAL2     0.900000E-01   1.00800           0   0.00000     -0.301140E-02
     17492 MEMB     141      PMPE     HY       HAL2     0.900000E-01   1.00800           0   0.00000     -0.301140E-02
     17493 MEMB     141      PMPE     O31      OSL     -0.490000       15.9994           0   0.00000     -0.301140E-02
     17494 MEMB     141      PMPE     C31      CL       0.900000       12.0110           0   0.00000     -0.301140E-02
     17495 MEMB     141      PMPE     O32      OBL     -0.630000       15.9994           0   0.00000     -0.301140E-02
     17496 MEMB     141      PMPE     C32      CTL2    -0.220000       12.0110           0   0.00000     -0.301140E-02
     17497 MEMB     141      PMPE     H2X      HAL2     0.900000E-01   1.00800           0   0.00000     -0.301140E-02
     17498 MEMB     141      PMPE     H2Y      HAL2     0.900000E-01   1.00800           0   0.00000     -0.301140E-02
     17499 MEMB     141      PMPE     C23      CTL2    -0.180000       12.0110           0   0.00000     -0.301140E-02
     17500 MEMB     141      PMPE     H3R      HAL2     0.900000E-01   1.00800           0   0.00000     -0.301140E-02
     17501 MEMB     141      PMPE     H3S      HAL2     0.900000E-01   1.00800           0   0.00000     -0.301140E-02
     17502 MEMB     141      PMPE     C24      CTL2    -0.180000       12.0110           0   0.00000     -0.301140E-02
     17503 MEMB     141      PMPE     H4R      HAL2     0.900000E-01   1.00800           0   0.00000     -0.301140E-02
     17504 MEMB     141      PMPE     H4S      HAL2     0.900000E-01   1.00800           0   0.00000     -0.301140E-02
     17505 MEMB     141      PMPE     C25      CTL2    -0.180000       12.0110           0   0.00000     -0.301140E-02
     17506 MEMB     141      PMPE     H5R      HAL2     0.900000E-01   1.00800           0   0.00000     -0.301140E-02
     17507 MEMB     141      PMPE     H5S      HAL2     0.900000E-01   1.00800           0   0.00000     -0.301140E-02
     17508 MEMB     141      PMPE     C26      CTL2    -0.180000       12.0110           0   0.00000     -0.301140E-02
     17509 MEMB     141      PMPE     H6R      HAL2     0.900000E-01   1.00800           0   0.00000     -0.301140E-02
     17510 MEMB     141      PMPE     H6S      HAL2     0.900000E-01   1.00800           0   0.00000     -0.301140E-02
     17511 MEMB     141      PMPE     C27      CTL2    -0.180000       12.0110           0   0.00000     -0.301140E-02
     17512 MEMB     141      PMPE     H7R      HAL2     0.900000E-01   1.00800           0   0.00000     -0.301140E-02
     17513 MEMB     141      PMPE     H7S      HAL2     0.900000E-01   1.00800           0   0.00000     -0.301140E-02
     17514 MEMB     141      PMPE     C28      CTL2    -0.180000       12.0110           0   0.00000     -0.301140E-02
     17515 MEMB     141      PMPE     H8R      HAL2     0.900000E-01   1.00800           0   0.00000     -0.301140E-02
     17516 MEMB     141      PMPE     H8S      HAL2     0.900000E-01   1.00800           0   0.00000     -0.301140E-02
     17517 MEMB     141      PMPE     C29      CG3RC1  -0.900000E-01   12.0110           0   0.00000     -0.301140E-02
     17518 MEMB     141      PMPE     H9R      HGA1     0.900000E-01   1.00800           0   0.00000     -0.301140E-02
     17519 MEMB     141      PMPE     C217     CG3C31  -0.180000       12.0110           0   0.00000     -0.301140E-02
     17520 MEMB     141      PMPE     H17R     HGA2     0.900000E-01   1.00800           0   0.00000     -0.301140E-02
     17521 MEMB     141      PMPE     H17S     HGA2     0.900000E-01   1.00800           0   0.00000     -0.301140E-02
     17522 MEMB     141      PMPE     C210     CG3RC1  -0.900000E-01   12.0110           0   0.00000     -0.301140E-02
     17523 MEMB     141      PMPE     H10R     HGA1     0.900000E-01   1.00800           0   0.00000     -0.301140E-02
     17524 MEMB     141      PMPE     C211     CTL2    -0.180000       12.0110           0   0.00000     -0.301140E-02
     17525 MEMB     141      PMPE     H11R     HAL2     0.900000E-01   1.00800           0   0.00000     -0.301140E-02
     17526 MEMB     141      PMPE     H11S     HAL2     0.900000E-01   1.00800           0   0.00000     -0.301140E-02
     17527 MEMB     141      PMPE     C212     CTL2    -0.180000       12.0110           0   0.00000     -0.301140E-02
     17528 MEMB     141      PMPE     H12R     HAL2     0.900000E-01   1.00800           0   0.00000     -0.301140E-02
     17529 MEMB     141      PMPE     H12S     HAL2     0.900000E-01   1.00800           0   0.00000     -0.301140E-02
     17530 MEMB     141      PMPE     C213     CTL2    -0.180000       12.0110           0   0.00000     -0.301140E-02
     17531 MEMB     141      PMPE     H13R     HAL2     0.900000E-01   1.00800           0   0.00000     -0.301140E-02
     17532 MEMB     141      PMPE     H13S     HAL2     0.900000E-01   1.00800           0   0.00000     -0.301140E-02
     17533 MEMB     141      PMPE     C214     CTL2    -0.180000       12.0110           0   0.00000     -0.301140E-02
     17534 MEMB     141      PMPE     H14R     HAL2     0.900000E-01   1.00800           0   0.00000     -0.301140E-02
     17535 MEMB     141      PMPE     H14S     HAL2     0.900000E-01   1.00800           0   0.00000     -0.301140E-02
     17536 MEMB     141      PMPE     C215     CTL2    -0.180000       12.0110           0   0.00000     -0.301140E-02
     17537 MEMB     141      PMPE     H15R     HAL2     0.900000E-01   1.00800           0   0.00000     -0.301140E-02
     17538 MEMB     141      PMPE     H15S     HAL2     0.900000E-01   1.00800           0   0.00000     -0.301140E-02
     17539 MEMB     141      PMPE     C216     CTL3    -0.270000       12.0110           0   0.00000     -0.301140E-02
     17540 MEMB     141      PMPE     H16R     HAL3     0.900000E-01   1.00800           0   0.00000     -0.301140E-02
     17541 MEMB     141      PMPE     H16S     HAL3     0.900000E-01   1.00800           0   0.00000     -0.301140E-02
     17542 MEMB     141      PMPE     H16T     HAL3     0.900000E-01   1.00800           0   0.00000     -0.301140E-02
     17543 MEMB     141      PMPE     C33      CTL2    -0.180000       12.0110           0   0.00000     -0.301140E-02
     17544 MEMB     141      PMPE     H3X      HAL2     0.900000E-01   1.00800           0   0.00000     -0.301140E-02
     17545 MEMB     141      PMPE     H3Y      HAL2     0.900000E-01   1.00800           0   0.00000     -0.301140E-02
     17546 MEMB     141      PMPE     C34      CTL2    -0.180000       12.0110           0   0.00000     -0.301140E-02
     17547 MEMB     141      PMPE     H4X      HAL2     0.900000E-01   1.00800           0   0.00000     -0.301140E-02
     17548 MEMB     141      PMPE     H4Y      HAL2     0.900000E-01   1.00800           0   0.00000     -0.301140E-02
     17549 MEMB     141      PMPE     C35      CTL2    -0.180000       12.0110           0   0.00000     -0.301140E-02
     17550 MEMB     141      PMPE     H5X      HAL2     0.900000E-01   1.00800           0   0.00000     -0.301140E-02
     17551 MEMB     141      PMPE     H5Y      HAL2     0.900000E-01   1.00800           0   0.00000     -0.301140E-02
     17552 MEMB     141      PMPE     C36      CTL2    -0.180000       12.0110           0   0.00000     -0.301140E-02
     17553 MEMB     141      PMPE     H6X      HAL2     0.900000E-01   1.00800           0   0.00000     -0.301140E-02
     17554 MEMB     141      PMPE     H6Y      HAL2     0.900000E-01   1.00800           0   0.00000     -0.301140E-02
     17555 MEMB     141      PMPE     C37      CTL2    -0.180000       12.0110           0   0.00000     -0.301140E-02
     17556 MEMB     141      PMPE     H7X      HAL2     0.900000E-01   1.00800           0   0.00000     -0.301140E-02
     17557 MEMB     141      PMPE     H7Y      HAL2     0.900000E-01   1.00800           0   0.00000     -0.301140E-02
     17558 MEMB     141      PMPE     C38      CTL2    -0.180000       12.0110           0   0.00000     -0.301140E-02
     17559 MEMB     141      PMPE     H8X      HAL2     0.900000E-01   1.00800           0   0.00000     -0.301140E-02
     17560 MEMB     141      PMPE     H8Y      HAL2     0.900000E-01   1.00800           0   0.00000     -0.301140E-02
     17561 MEMB     141      PMPE     C39      CTL2    -0.180000       12.0110           0   0.00000     -0.301140E-02
     17562 MEMB     141      PMPE     H9X      HAL2     0.900000E-01   1.00800           0   0.00000     -0.301140E-02
     17563 MEMB     141      PMPE     H9Y      HAL2     0.900000E-01   1.00800           0   0.00000     -0.301140E-02
     17564 MEMB     141      PMPE     C310     CTL2    -0.180000       12.0110           0   0.00000     -0.301140E-02
     17565 MEMB     141      PMPE     H10X     HAL2     0.900000E-01   1.00800           0   0.00000     -0.301140E-02
     17566 MEMB     141      PMPE     H10Y     HAL2     0.900000E-01   1.00800           0   0.00000     -0.301140E-02
     17567 MEMB     141      PMPE     C311     CTL2    -0.180000       12.0110           0   0.00000     -0.301140E-02
     17568 MEMB     141      PMPE     H11X     HAL2     0.900000E-01   1.00800           0   0.00000     -0.301140E-02
     17569 MEMB     141      PMPE     H11Y     HAL2     0.900000E-01   1.00800           0   0.00000     -0.301140E-02
     17570 MEMB     141      PMPE     C312     CTL2    -0.180000       12.0110           0   0.00000     -0.301140E-02
     17571 MEMB     141      PMPE     H12X     HAL2     0.900000E-01   1.00800           0   0.00000     -0.301140E-02
     17572 MEMB     141      PMPE     H12Y     HAL2     0.900000E-01   1.00800           0   0.00000     -0.301140E-02
     17573 MEMB     141      PMPE     C313     CTL2    -0.180000       12.0110           0   0.00000     -0.301140E-02
     17574 MEMB     141      PMPE     H13X     HAL2     0.900000E-01   1.00800           0   0.00000     -0.301140E-02
     17575 MEMB     141      PMPE     H13Y     HAL2     0.900000E-01   1.00800           0   0.00000     -0.301140E-02
     17576 MEMB     141      PMPE     C314     CTL2    -0.180000       12.0110           0   0.00000     -0.301140E-02
     17577 MEMB     141      PMPE     H14X     HAL2     0.900000E-01   1.00800           0   0.00000     -0.301140E-02
     17578 MEMB     141      PMPE     H14Y     HAL2     0.900000E-01   1.00800           0   0.00000     -0.301140E-02
     17579 MEMB     141      PMPE     C315     CTL2    -0.180000       12.0110           0   0.00000     -0.301140E-02
     17580 MEMB     141      PMPE     H15X     HAL2     0.900000E-01   1.00800           0   0.00000     -0.301140E-02
     17581 MEMB     141      PMPE     H15Y     HAL2     0.900000E-01   1.00800           0   0.00000     -0.301140E-02
     17582 MEMB     141      PMPE     C316     CTL3    -0.270000       12.0110           0   0.00000     -0.301140E-02
     17583 MEMB     141      PMPE     H16X     HAL3     0.900000E-01   1.00800           0   0.00000     -0.301140E-02
     17584 MEMB     141      PMPE     H16Y     HAL3     0.900000E-01   1.00800           0   0.00000     -0.301140E-02
     17585 MEMB     141      PMPE     H16Z     HAL3     0.900000E-01   1.00800           0   0.00000     -0.301140E-02
     17586 MEMB     142      PMPG     C13      CTL2     0.500000E-01   12.0110           0   0.00000     -0.301140E-02
     17587 MEMB     142      PMPG     H13A     HAL2     0.900000E-01   1.00800           0   0.00000     -0.301140E-02
     17588 MEMB     142      PMPG     H13B     HAL2     0.900000E-01   1.00800           0   0.00000     -0.301140E-02
     17589 MEMB     142      PMPG     OC3      OHL     -0.660000       15.9994           0   0.00000     -0.301140E-02
     17590 MEMB     142      PMPG     HO3      HOL      0.430000       1.00800           0   0.00000     -0.301140E-02
     17591 MEMB     142      PMPG     C12      CTL1     0.140000       12.0110           0   0.00000     -0.301140E-02
     17592 MEMB     142      PMPG     H12A     HAL1     0.900000E-01   1.00800           0   0.00000     -0.301140E-02
     17593 MEMB     142      PMPG     OC2      OHL     -0.660000       15.9994           0   0.00000     -0.301140E-02
     17594 MEMB     142      PMPG     HO2      HOL      0.430000       1.00800           0   0.00000     -0.301140E-02
     17595 MEMB     142      PMPG     C11      CTL2    -0.800000E-01   12.0110           0   0.00000     -0.301140E-02
     17596 MEMB     142      PMPG     H11A     HAL2     0.900000E-01   1.00800           0   0.00000     -0.301140E-02
     17597 MEMB     142      PMPG     H11B     HAL2     0.900000E-01   1.00800           0   0.00000     -0.301140E-02
     17598 MEMB     142      PMPG     P        PL        1.50000       30.9740           0   0.00000     -0.301140E-02
     17599 MEMB     142      PMPG     O13      O2L     -0.780000       15.9994           0   0.00000     -0.301140E-02
     17600 MEMB     142      PMPG     O14      O2L     -0.780000       15.9994           0   0.00000     -0.301140E-02
     17601 MEMB     142      PMPG     O11      OSLP    -0.570000       15.9994           0   0.00000     -0.301140E-02
     17602 MEMB     142      PMPG     O12      OSLP    -0.570000       15.9994           0   0.00000     -0.301140E-02
     17603 MEMB     142      PMPG     C1       CTL2    -0.800000E-01   12.0110           0   0.00000     -0.301140E-02
     17604 MEMB     142      PMPG     HA       HAL2     0.900000E-01   1.00800           0   0.00000     -0.301140E-02
     17605 MEMB     142      PMPG     HB       HAL2     0.900000E-01   1.00800           0   0.00000     -0.301140E-02
     17606 MEMB     142      PMPG     C2       CTL1     0.170000       12.0110           0   0.00000     -0.301140E-02
     17607 MEMB     142      PMPG     HS       HAL1     0.900000E-01   1.00800           0   0.00000     -0.301140E-02
     17608 MEMB     142      PMPG     O21      OSL     -0.490000       15.9994           0   0.00000     -0.301140E-02
     17609 MEMB     142      PMPG     C21      CL       0.900000       12.0110           0   0.00000     -0.301140E-02
     17610 MEMB     142      PMPG     O22      OBL     -0.630000       15.9994           0   0.00000     -0.301140E-02
     17611 MEMB     142      PMPG     C22      CTL2    -0.220000       12.0110           0   0.00000     -0.301140E-02
     17612 MEMB     142      PMPG     H2R      HAL2     0.900000E-01   1.00800           0   0.00000     -0.301140E-02
     17613 MEMB     142      PMPG     H2S      HAL2     0.900000E-01   1.00800           0   0.00000     -0.301140E-02
     17614 MEMB     142      PMPG     C3       CTL2     0.800000E-01   12.0110           0   0.00000     -0.301140E-02
     17615 MEMB     142      PMPG     HX       HAL2     0.900000E-01   1.00800           0   0.00000     -0.301140E-02
     17616 MEMB     142      PMPG     HY       HAL2     0.900000E-01   1.00800           0   0.00000     -0.301140E-02
     17617 MEMB     142      PMPG     O31      OSL     -0.490000       15.9994           0   0.00000     -0.301140E-02
     17618 MEMB     142      PMPG     C31      CL       0.900000       12.0110           0   0.00000     -0.301140E-02
     17619 MEMB     142      PMPG     O32      OBL     -0.630000       15.9994           0   0.00000     -0.301140E-02
     17620 MEMB     142      PMPG     C32      CTL2    -0.220000       12.0110           0   0.00000     -0.301140E-02
     17621 MEMB     142      PMPG     H2X      HAL2     0.900000E-01   1.00800           0   0.00000     -0.301140E-02
     17622 MEMB     142      PMPG     H2Y      HAL2     0.900000E-01   1.00800           0   0.00000     -0.301140E-02
     17623 MEMB     142      PMPG     C23      CTL2    -0.180000       12.0110           0   0.00000     -0.301140E-02
     17624 MEMB     142      PMPG     H3R      HAL2     0.900000E-01   1.00800           0   0.00000     -0.301140E-02
     17625 MEMB     142      PMPG     H3S      HAL2     0.900000E-01   1.00800           0   0.00000     -0.301140E-02
     17626 MEMB     142      PMPG     C24      CTL2    -0.180000       12.0110           0   0.00000     -0.301140E-02
     17627 MEMB     142      PMPG     H4R      HAL2     0.900000E-01   1.00800           0   0.00000     -0.301140E-02
     17628 MEMB     142      PMPG     H4S      HAL2     0.900000E-01   1.00800           0   0.00000     -0.301140E-02
     17629 MEMB     142      PMPG     C25      CTL2    -0.180000       12.0110           0   0.00000     -0.301140E-02
     17630 MEMB     142      PMPG     H5R      HAL2     0.900000E-01   1.00800           0   0.00000     -0.301140E-02
     17631 MEMB     142      PMPG     H5S      HAL2     0.900000E-01   1.00800           0   0.00000     -0.301140E-02
     17632 MEMB     142      PMPG     C26      CTL2    -0.180000       12.0110           0   0.00000     -0.301140E-02
     17633 MEMB     142      PMPG     H6R      HAL2     0.900000E-01   1.00800           0   0.00000     -0.301140E-02
     17634 MEMB     142      PMPG     H6S      HAL2     0.900000E-01   1.00800           0   0.00000     -0.301140E-02
     17635 MEMB     142      PMPG     C27      CTL2    -0.180000       12.0110           0   0.00000     -0.301140E-02
     17636 MEMB     142      PMPG     H7R      HAL2     0.900000E-01   1.00800           0   0.00000     -0.301140E-02
     17637 MEMB     142      PMPG     H7S      HAL2     0.900000E-01   1.00800           0   0.00000     -0.301140E-02
     17638 MEMB     142      PMPG     C28      CTL2    -0.180000       12.0110           0   0.00000     -0.301140E-02
     17639 MEMB     142      PMPG     H8R      HAL2     0.900000E-01   1.00800           0   0.00000     -0.301140E-02
     17640 MEMB     142      PMPG     H8S      HAL2     0.900000E-01   1.00800           0   0.00000     -0.301140E-02
     17641 MEMB     142      PMPG     C29      CG3RC1  -0.900000E-01   12.0110           0   0.00000     -0.301140E-02
     17642 MEMB     142      PMPG     H9R      HGA1     0.900000E-01   1.00800           0   0.00000     -0.301140E-02
     17643 MEMB     142      PMPG     C217     CG3C31  -0.180000       12.0110           0   0.00000     -0.301140E-02
     17644 MEMB     142      PMPG     H17R     HGA2     0.900000E-01   1.00800           0   0.00000     -0.301140E-02
     17645 MEMB     142      PMPG     H17S     HGA2     0.900000E-01   1.00800           0   0.00000     -0.301140E-02
     17646 MEMB     142      PMPG     C210     CG3RC1  -0.900000E-01   12.0110           0   0.00000     -0.301140E-02
     17647 MEMB     142      PMPG     H10R     HGA1     0.900000E-01   1.00800           0   0.00000     -0.301140E-02
     17648 MEMB     142      PMPG     C211     CTL2    -0.180000       12.0110           0   0.00000     -0.301140E-02
     17649 MEMB     142      PMPG     H11R     HAL2     0.900000E-01   1.00800           0   0.00000     -0.301140E-02
     17650 MEMB     142      PMPG     H11S     HAL2     0.900000E-01   1.00800           0   0.00000     -0.301140E-02
     17651 MEMB     142      PMPG     C212     CTL2    -0.180000       12.0110           0   0.00000     -0.301140E-02
     17652 MEMB     142      PMPG     H12R     HAL2     0.900000E-01   1.00800           0   0.00000     -0.301140E-02
     17653 MEMB     142      PMPG     H12S     HAL2     0.900000E-01   1.00800           0   0.00000     -0.301140E-02
     17654 MEMB     142      PMPG     C213     CTL2    -0.180000       12.0110           0   0.00000     -0.301140E-02
     17655 MEMB     142      PMPG     H13R     HAL2     0.900000E-01   1.00800           0   0.00000     -0.301140E-02
     17656 MEMB     142      PMPG     H13S     HAL2     0.900000E-01   1.00800           0   0.00000     -0.301140E-02
     17657 MEMB     142      PMPG     C214     CTL2    -0.180000       12.0110           0   0.00000     -0.301140E-02
     17658 MEMB     142      PMPG     H14R     HAL2     0.900000E-01   1.00800           0   0.00000     -0.301140E-02
     17659 MEMB     142      PMPG     H14S     HAL2     0.900000E-01   1.00800           0   0.00000     -0.301140E-02
     17660 MEMB     142      PMPG     C215     CTL2    -0.180000       12.0110           0   0.00000     -0.301140E-02
     17661 MEMB     142      PMPG     H15R     HAL2     0.900000E-01   1.00800           0   0.00000     -0.301140E-02
     17662 MEMB     142      PMPG     H15S     HAL2     0.900000E-01   1.00800           0   0.00000     -0.301140E-02
     17663 MEMB     142      PMPG     C216     CTL3    -0.270000       12.0110           0   0.00000     -0.301140E-02
     17664 MEMB     142      PMPG     H16R     HAL3     0.900000E-01   1.00800           0   0.00000     -0.301140E-02
     17665 MEMB     142      PMPG     H16S     HAL3     0.900000E-01   1.00800           0   0.00000     -0.301140E-02
     17666 MEMB     142      PMPG     H16T     HAL3     0.900000E-01   1.00800           0   0.00000     -0.301140E-02
     17667 MEMB     142      PMPG     C33      CTL2    -0.180000       12.0110           0   0.00000     -0.301140E-02
     17668 MEMB     142      PMPG     H3X      HAL2     0.900000E-01   1.00800           0   0.00000     -0.301140E-02
     17669 MEMB     142      PMPG     H3Y      HAL2     0.900000E-01   1.00800           0   0.00000     -0.301140E-02
     17670 MEMB     142      PMPG     C34      CTL2    -0.180000       12.0110           0   0.00000     -0.301140E-02
     17671 MEMB     142      PMPG     H4X      HAL2     0.900000E-01   1.00800           0   0.00000     -0.301140E-02
     17672 MEMB     142      PMPG     H4Y      HAL2     0.900000E-01   1.00800           0   0.00000     -0.301140E-02
     17673 MEMB     142      PMPG     C35      CTL2    -0.180000       12.0110           0   0.00000     -0.301140E-02
     17674 MEMB     142      PMPG     H5X      HAL2     0.900000E-01   1.00800           0   0.00000     -0.301140E-02
     17675 MEMB     142      PMPG     H5Y      HAL2     0.900000E-01   1.00800           0   0.00000     -0.301140E-02
     17676 MEMB     142      PMPG     C36      CTL2    -0.180000       12.0110           0   0.00000     -0.301140E-02
     17677 MEMB     142      PMPG     H6X      HAL2     0.900000E-01   1.00800           0   0.00000     -0.301140E-02
     17678 MEMB     142      PMPG     H6Y      HAL2     0.900000E-01   1.00800           0   0.00000     -0.301140E-02
     17679 MEMB     142      PMPG     C37      CTL2    -0.180000       12.0110           0   0.00000     -0.301140E-02
     17680 MEMB     142      PMPG     H7X      HAL2     0.900000E-01   1.00800           0   0.00000     -0.301140E-02
     17681 MEMB     142      PMPG     H7Y      HAL2     0.900000E-01   1.00800           0   0.00000     -0.301140E-02
     17682 MEMB     142      PMPG     C38      CTL2    -0.180000       12.0110           0   0.00000     -0.301140E-02
     17683 MEMB     142      PMPG     H8X      HAL2     0.900000E-01   1.00800           0   0.00000     -0.301140E-02
     17684 MEMB     142      PMPG     H8Y      HAL2     0.900000E-01   1.00800           0   0.00000     -0.301140E-02
     17685 MEMB     142      PMPG     C39      CTL2    -0.180000       12.0110           0   0.00000     -0.301140E-02
     17686 MEMB     142      PMPG     H9X      HAL2     0.900000E-01   1.00800           0   0.00000     -0.301140E-02
     17687 MEMB     142      PMPG     H9Y      HAL2     0.900000E-01   1.00800           0   0.00000     -0.301140E-02
     17688 MEMB     142      PMPG     C310     CTL2    -0.180000       12.0110           0   0.00000     -0.301140E-02
     17689 MEMB     142      PMPG     H10X     HAL2     0.900000E-01   1.00800           0   0.00000     -0.301140E-02
     17690 MEMB     142      PMPG     H10Y     HAL2     0.900000E-01   1.00800           0   0.00000     -0.301140E-02
     17691 MEMB     142      PMPG     C311     CTL2    -0.180000       12.0110           0   0.00000     -0.301140E-02
     17692 MEMB     142      PMPG     H11X     HAL2     0.900000E-01   1.00800           0   0.00000     -0.301140E-02
     17693 MEMB     142      PMPG     H11Y     HAL2     0.900000E-01   1.00800           0   0.00000     -0.301140E-02
     17694 MEMB     142      PMPG     C312     CTL2    -0.180000       12.0110           0   0.00000     -0.301140E-02
     17695 MEMB     142      PMPG     H12X     HAL2     0.900000E-01   1.00800           0   0.00000     -0.301140E-02
     17696 MEMB     142      PMPG     H12Y     HAL2     0.900000E-01   1.00800           0   0.00000     -0.301140E-02
     17697 MEMB     142      PMPG     C313     CTL2    -0.180000       12.0110           0   0.00000     -0.301140E-02
     17698 MEMB     142      PMPG     H13X     HAL2     0.900000E-01   1.00800           0   0.00000     -0.301140E-02
     17699 MEMB     142      PMPG     H13Y     HAL2     0.900000E-01   1.00800           0   0.00000     -0.301140E-02
     17700 MEMB     142      PMPG     C314     CTL2    -0.180000       12.0110           0   0.00000     -0.301140E-02
     17701 MEMB     142      PMPG     H14X     HAL2     0.900000E-01   1.00800           0   0.00000     -0.301140E-02
     17702 MEMB     142      PMPG     H14Y     HAL2     0.900000E-01   1.00800           0   0.00000     -0.301140E-02
     17703 MEMB     142      PMPG     C315     CTL2    -0.180000       12.0110           0   0.00000     -0.301140E-02
     17704 MEMB     142      PMPG     H15X     HAL2     0.900000E-01   1.00800           0   0.00000     -0.301140E-02
     17705 MEMB     142      PMPG     H15Y     HAL2     0.900000E-01   1.00800           0   0.00000     -0.301140E-02
     17706 MEMB     142      PMPG     C316     CTL3    -0.270000       12.0110           0   0.00000     -0.301140E-02
     17707 MEMB     142      PMPG     H16X     HAL3     0.900000E-01   1.00800           0   0.00000     -0.301140E-02
     17708 MEMB     142      PMPG     H16Y     HAL3     0.900000E-01   1.00800           0   0.00000     -0.301140E-02
     17709 MEMB     142      PMPG     H16Z     HAL3     0.900000E-01   1.00800           0   0.00000     -0.301140E-02
     17710 MEMB     143      PMPE     N        NH3L    -0.300000       14.0070           0   0.00000     -0.301140E-02
     17711 MEMB     143      PMPE     HN1      HCL      0.330000       1.00800           0   0.00000     -0.301140E-02
     17712 MEMB     143      PMPE     HN2      HCL      0.330000       1.00800           0   0.00000     -0.301140E-02
     17713 MEMB     143      PMPE     HN3      HCL      0.330000       1.00800           0   0.00000     -0.301140E-02
     17714 MEMB     143      PMPE     C12      CTL2     0.130000       12.0110           0   0.00000     -0.301140E-02
     17715 MEMB     143      PMPE     H12A     HAL2     0.900000E-01   1.00800           0   0.00000     -0.301140E-02
     17716 MEMB     143      PMPE     H12B     HAL2     0.900000E-01   1.00800           0   0.00000     -0.301140E-02
     17717 MEMB     143      PMPE     C11      CTL2    -0.800000E-01   12.0110           0   0.00000     -0.301140E-02
     17718 MEMB     143      PMPE     H11A     HAL2     0.900000E-01   1.00800           0   0.00000     -0.301140E-02
     17719 MEMB     143      PMPE     H11B     HAL2     0.900000E-01   1.00800           0   0.00000     -0.301140E-02
     17720 MEMB     143      PMPE     P        PL        1.50000       30.9740           0   0.00000     -0.301140E-02
     17721 MEMB     143      PMPE     O13      O2L     -0.780000       15.9994           0   0.00000     -0.301140E-02
     17722 MEMB     143      PMPE     O14      O2L     -0.780000       15.9994           0   0.00000     -0.301140E-02
     17723 MEMB     143      PMPE     O11      OSLP    -0.570000       15.9994           0   0.00000     -0.301140E-02
     17724 MEMB     143      PMPE     O12      OSLP    -0.570000       15.9994           0   0.00000     -0.301140E-02
     17725 MEMB     143      PMPE     C1       CTL2    -0.800000E-01   12.0110           0   0.00000     -0.301140E-02
     17726 MEMB     143      PMPE     HA       HAL2     0.900000E-01   1.00800           0   0.00000     -0.301140E-02
     17727 MEMB     143      PMPE     HB       HAL2     0.900000E-01   1.00800           0   0.00000     -0.301140E-02
     17728 MEMB     143      PMPE     C2       CTL1     0.170000       12.0110           0   0.00000     -0.301140E-02
     17729 MEMB     143      PMPE     HS       HAL1     0.900000E-01   1.00800           0   0.00000     -0.301140E-02
     17730 MEMB     143      PMPE     O21      OSL     -0.490000       15.9994           0   0.00000     -0.301140E-02
     17731 MEMB     143      PMPE     C21      CL       0.900000       12.0110           0   0.00000     -0.301140E-02
     17732 MEMB     143      PMPE     O22      OBL     -0.630000       15.9994           0   0.00000     -0.301140E-02
     17733 MEMB     143      PMPE     C22      CTL2    -0.220000       12.0110           0   0.00000     -0.301140E-02
     17734 MEMB     143      PMPE     H2R      HAL2     0.900000E-01   1.00800           0   0.00000     -0.301140E-02
     17735 MEMB     143      PMPE     H2S      HAL2     0.900000E-01   1.00800           0   0.00000     -0.301140E-02
     17736 MEMB     143      PMPE     C3       CTL2     0.800000E-01   12.0110           0   0.00000     -0.301140E-02
     17737 MEMB     143      PMPE     HX       HAL2     0.900000E-01   1.00800           0   0.00000     -0.301140E-02
     17738 MEMB     143      PMPE     HY       HAL2     0.900000E-01   1.00800           0   0.00000     -0.301140E-02
     17739 MEMB     143      PMPE     O31      OSL     -0.490000       15.9994           0   0.00000     -0.301140E-02
     17740 MEMB     143      PMPE     C31      CL       0.900000       12.0110           0   0.00000     -0.301140E-02
     17741 MEMB     143      PMPE     O32      OBL     -0.630000       15.9994           0   0.00000     -0.301140E-02
     17742 MEMB     143      PMPE     C32      CTL2    -0.220000       12.0110           0   0.00000     -0.301140E-02
     17743 MEMB     143      PMPE     H2X      HAL2     0.900000E-01   1.00800           0   0.00000     -0.301140E-02
     17744 MEMB     143      PMPE     H2Y      HAL2     0.900000E-01   1.00800           0   0.00000     -0.301140E-02
     17745 MEMB     143      PMPE     C23      CTL2    -0.180000       12.0110           0   0.00000     -0.301140E-02
     17746 MEMB     143      PMPE     H3R      HAL2     0.900000E-01   1.00800           0   0.00000     -0.301140E-02
     17747 MEMB     143      PMPE     H3S      HAL2     0.900000E-01   1.00800           0   0.00000     -0.301140E-02
     17748 MEMB     143      PMPE     C24      CTL2    -0.180000       12.0110           0   0.00000     -0.301140E-02
     17749 MEMB     143      PMPE     H4R      HAL2     0.900000E-01   1.00800           0   0.00000     -0.301140E-02
     17750 MEMB     143      PMPE     H4S      HAL2     0.900000E-01   1.00800           0   0.00000     -0.301140E-02
     17751 MEMB     143      PMPE     C25      CTL2    -0.180000       12.0110           0   0.00000     -0.301140E-02
     17752 MEMB     143      PMPE     H5R      HAL2     0.900000E-01   1.00800           0   0.00000     -0.301140E-02
     17753 MEMB     143      PMPE     H5S      HAL2     0.900000E-01   1.00800           0   0.00000     -0.301140E-02
     17754 MEMB     143      PMPE     C26      CTL2    -0.180000       12.0110           0   0.00000     -0.301140E-02
     17755 MEMB     143      PMPE     H6R      HAL2     0.900000E-01   1.00800           0   0.00000     -0.301140E-02
     17756 MEMB     143      PMPE     H6S      HAL2     0.900000E-01   1.00800           0   0.00000     -0.301140E-02
     17757 MEMB     143      PMPE     C27      CTL2    -0.180000       12.0110           0   0.00000     -0.301140E-02
     17758 MEMB     143      PMPE     H7R      HAL2     0.900000E-01   1.00800           0   0.00000     -0.301140E-02
     17759 MEMB     143      PMPE     H7S      HAL2     0.900000E-01   1.00800           0   0.00000     -0.301140E-02
     17760 MEMB     143      PMPE     C28      CTL2    -0.180000       12.0110           0   0.00000     -0.301140E-02
     17761 MEMB     143      PMPE     H8R      HAL2     0.900000E-01   1.00800           0   0.00000     -0.301140E-02
     17762 MEMB     143      PMPE     H8S      HAL2     0.900000E-01   1.00800           0   0.00000     -0.301140E-02
     17763 MEMB     143      PMPE     C29      CG3RC1  -0.900000E-01   12.0110           0   0.00000     -0.301140E-02
     17764 MEMB     143      PMPE     H9R      HGA1     0.900000E-01   1.00800           0   0.00000     -0.301140E-02
     17765 MEMB     143      PMPE     C217     CG3C31  -0.180000       12.0110           0   0.00000     -0.301140E-02
     17766 MEMB     143      PMPE     H17R     HGA2     0.900000E-01   1.00800           0   0.00000     -0.301140E-02
     17767 MEMB     143      PMPE     H17S     HGA2     0.900000E-01   1.00800           0   0.00000     -0.301140E-02
     17768 MEMB     143      PMPE     C210     CG3RC1  -0.900000E-01   12.0110           0   0.00000     -0.301140E-02
     17769 MEMB     143      PMPE     H10R     HGA1     0.900000E-01   1.00800           0   0.00000     -0.301140E-02
     17770 MEMB     143      PMPE     C211     CTL2    -0.180000       12.0110           0   0.00000     -0.301140E-02
     17771 MEMB     143      PMPE     H11R     HAL2     0.900000E-01   1.00800           0   0.00000     -0.301140E-02
     17772 MEMB     143      PMPE     H11S     HAL2     0.900000E-01   1.00800           0   0.00000     -0.301140E-02
     17773 MEMB     143      PMPE     C212     CTL2    -0.180000       12.0110           0   0.00000     -0.301140E-02
     17774 MEMB     143      PMPE     H12R     HAL2     0.900000E-01   1.00800           0   0.00000     -0.301140E-02
     17775 MEMB     143      PMPE     H12S     HAL2     0.900000E-01   1.00800           0   0.00000     -0.301140E-02
     17776 MEMB     143      PMPE     C213     CTL2    -0.180000       12.0110           0   0.00000     -0.301140E-02
     17777 MEMB     143      PMPE     H13R     HAL2     0.900000E-01   1.00800           0   0.00000     -0.301140E-02
     17778 MEMB     143      PMPE     H13S     HAL2     0.900000E-01   1.00800           0   0.00000     -0.301140E-02
     17779 MEMB     143      PMPE     C214     CTL2    -0.180000       12.0110           0   0.00000     -0.301140E-02
     17780 MEMB     143      PMPE     H14R     HAL2     0.900000E-01   1.00800           0   0.00000     -0.301140E-02
     17781 MEMB     143      PMPE     H14S     HAL2     0.900000E-01   1.00800           0   0.00000     -0.301140E-02
     17782 MEMB     143      PMPE     C215     CTL2    -0.180000       12.0110           0   0.00000     -0.301140E-02
     17783 MEMB     143      PMPE     H15R     HAL2     0.900000E-01   1.00800           0   0.00000     -0.301140E-02
     17784 MEMB     143      PMPE     H15S     HAL2     0.900000E-01   1.00800           0   0.00000     -0.301140E-02
     17785 MEMB     143      PMPE     C216     CTL3    -0.270000       12.0110           0   0.00000     -0.301140E-02
     17786 MEMB     143      PMPE     H16R     HAL3     0.900000E-01   1.00800           0   0.00000     -0.301140E-02
     17787 MEMB     143      PMPE     H16S     HAL3     0.900000E-01   1.00800           0   0.00000     -0.301140E-02
     17788 MEMB     143      PMPE     H16T     HAL3     0.900000E-01   1.00800           0   0.00000     -0.301140E-02
     17789 MEMB     143      PMPE     C33      CTL2    -0.180000       12.0110           0   0.00000     -0.301140E-02
     17790 MEMB     143      PMPE     H3X      HAL2     0.900000E-01   1.00800           0   0.00000     -0.301140E-02
     17791 MEMB     143      PMPE     H3Y      HAL2     0.900000E-01   1.00800           0   0.00000     -0.301140E-02
     17792 MEMB     143      PMPE     C34      CTL2    -0.180000       12.0110           0   0.00000     -0.301140E-02
     17793 MEMB     143      PMPE     H4X      HAL2     0.900000E-01   1.00800           0   0.00000     -0.301140E-02
     17794 MEMB     143      PMPE     H4Y      HAL2     0.900000E-01   1.00800           0   0.00000     -0.301140E-02
     17795 MEMB     143      PMPE     C35      CTL2    -0.180000       12.0110           0   0.00000     -0.301140E-02
     17796 MEMB     143      PMPE     H5X      HAL2     0.900000E-01   1.00800           0   0.00000     -0.301140E-02
     17797 MEMB     143      PMPE     H5Y      HAL2     0.900000E-01   1.00800           0   0.00000     -0.301140E-02
     17798 MEMB     143      PMPE     C36      CTL2    -0.180000       12.0110           0   0.00000     -0.301140E-02
     17799 MEMB     143      PMPE     H6X      HAL2     0.900000E-01   1.00800           0   0.00000     -0.301140E-02
     17800 MEMB     143      PMPE     H6Y      HAL2     0.900000E-01   1.00800           0   0.00000     -0.301140E-02
     17801 MEMB     143      PMPE     C37      CTL2    -0.180000       12.0110           0   0.00000     -0.301140E-02
     17802 MEMB     143      PMPE     H7X      HAL2     0.900000E-01   1.00800           0   0.00000     -0.301140E-02
     17803 MEMB     143      PMPE     H7Y      HAL2     0.900000E-01   1.00800           0   0.00000     -0.301140E-02
     17804 MEMB     143      PMPE     C38      CTL2    -0.180000       12.0110           0   0.00000     -0.301140E-02
     17805 MEMB     143      PMPE     H8X      HAL2     0.900000E-01   1.00800           0   0.00000     -0.301140E-02
     17806 MEMB     143      PMPE     H8Y      HAL2     0.900000E-01   1.00800           0   0.00000     -0.301140E-02
     17807 MEMB     143      PMPE     C39      CTL2    -0.180000       12.0110           0   0.00000     -0.301140E-02
     17808 MEMB     143      PMPE     H9X      HAL2     0.900000E-01   1.00800           0   0.00000     -0.301140E-02
     17809 MEMB     143      PMPE     H9Y      HAL2     0.900000E-01   1.00800           0   0.00000     -0.301140E-02
     17810 MEMB     143      PMPE     C310     CTL2    -0.180000       12.0110           0   0.00000     -0.301140E-02
     17811 MEMB     143      PMPE     H10X     HAL2     0.900000E-01   1.00800           0   0.00000     -0.301140E-02
     17812 MEMB     143      PMPE     H10Y     HAL2     0.900000E-01   1.00800           0   0.00000     -0.301140E-02
     17813 MEMB     143      PMPE     C311     CTL2    -0.180000       12.0110           0   0.00000     -0.301140E-02
     17814 MEMB     143      PMPE     H11X     HAL2     0.900000E-01   1.00800           0   0.00000     -0.301140E-02
     17815 MEMB     143      PMPE     H11Y     HAL2     0.900000E-01   1.00800           0   0.00000     -0.301140E-02
     17816 MEMB     143      PMPE     C312     CTL2    -0.180000       12.0110           0   0.00000     -0.301140E-02
     17817 MEMB     143      PMPE     H12X     HAL2     0.900000E-01   1.00800           0   0.00000     -0.301140E-02
     17818 MEMB     143      PMPE     H12Y     HAL2     0.900000E-01   1.00800           0   0.00000     -0.301140E-02
     17819 MEMB     143      PMPE     C313     CTL2    -0.180000       12.0110           0   0.00000     -0.301140E-02
     17820 MEMB     143      PMPE     H13X     HAL2     0.900000E-01   1.00800           0   0.00000     -0.301140E-02
     17821 MEMB     143      PMPE     H13Y     HAL2     0.900000E-01   1.00800           0   0.00000     -0.301140E-02
     17822 MEMB     143      PMPE     C314     CTL2    -0.180000       12.0110           0   0.00000     -0.301140E-02
     17823 MEMB     143      PMPE     H14X     HAL2     0.900000E-01   1.00800           0   0.00000     -0.301140E-02
     17824 MEMB     143      PMPE     H14Y     HAL2     0.900000E-01   1.00800           0   0.00000     -0.301140E-02
     17825 MEMB     143      PMPE     C315     CTL2    -0.180000       12.0110           0   0.00000     -0.301140E-02
     17826 MEMB     143      PMPE     H15X     HAL2     0.900000E-01   1.00800           0   0.00000     -0.301140E-02
     17827 MEMB     143      PMPE     H15Y     HAL2     0.900000E-01   1.00800           0   0.00000     -0.301140E-02
     17828 MEMB     143      PMPE     C316     CTL3    -0.270000       12.0110           0   0.00000     -0.301140E-02
     17829 MEMB     143      PMPE     H16X     HAL3     0.900000E-01   1.00800           0   0.00000     -0.301140E-02
     17830 MEMB     143      PMPE     H16Y     HAL3     0.900000E-01   1.00800           0   0.00000     -0.301140E-02
     17831 MEMB     143      PMPE     H16Z     HAL3     0.900000E-01   1.00800           0   0.00000     -0.301140E-02
     17832 MEMB     144      QMPE     N        NH3L    -0.300000       14.0070           0   0.00000     -0.301140E-02
     17833 MEMB     144      QMPE     HN1      HCL      0.330000       1.00800           0   0.00000     -0.301140E-02
     17834 MEMB     144      QMPE     HN2      HCL      0.330000       1.00800           0   0.00000     -0.301140E-02
     17835 MEMB     144      QMPE     HN3      HCL      0.330000       1.00800           0   0.00000     -0.301140E-02
     17836 MEMB     144      QMPE     C12      CTL2     0.130000       12.0110           0   0.00000     -0.301140E-02
     17837 MEMB     144      QMPE     H12A     HAL2     0.900000E-01   1.00800           0   0.00000     -0.301140E-02
     17838 MEMB     144      QMPE     H12B     HAL2     0.900000E-01   1.00800           0   0.00000     -0.301140E-02
     17839 MEMB     144      QMPE     C11      CTL2    -0.800000E-01   12.0110           0   0.00000     -0.301140E-02
     17840 MEMB     144      QMPE     H11A     HAL2     0.900000E-01   1.00800           0   0.00000     -0.301140E-02
     17841 MEMB     144      QMPE     H11B     HAL2     0.900000E-01   1.00800           0   0.00000     -0.301140E-02
     17842 MEMB     144      QMPE     P        PL        1.50000       30.9740           0   0.00000     -0.301140E-02
     17843 MEMB     144      QMPE     O13      O2L     -0.780000       15.9994           0   0.00000     -0.301140E-02
     17844 MEMB     144      QMPE     O14      O2L     -0.780000       15.9994           0   0.00000     -0.301140E-02
     17845 MEMB     144      QMPE     O11      OSLP    -0.570000       15.9994           0   0.00000     -0.301140E-02
     17846 MEMB     144      QMPE     O12      OSLP    -0.570000       15.9994           0   0.00000     -0.301140E-02
     17847 MEMB     144      QMPE     C1       CTL2    -0.800000E-01   12.0110           0   0.00000     -0.301140E-02
     17848 MEMB     144      QMPE     HA       HAL2     0.900000E-01   1.00800           0   0.00000     -0.301140E-02
     17849 MEMB     144      QMPE     HB       HAL2     0.900000E-01   1.00800           0   0.00000     -0.301140E-02
     17850 MEMB     144      QMPE     C2       CTL1     0.170000       12.0110           0   0.00000     -0.301140E-02
     17851 MEMB     144      QMPE     HS       HAL1     0.900000E-01   1.00800           0   0.00000     -0.301140E-02
     17852 MEMB     144      QMPE     O21      OSL     -0.490000       15.9994           0   0.00000     -0.301140E-02
     17853 MEMB     144      QMPE     C21      CL       0.900000       12.0110           0   0.00000     -0.301140E-02
     17854 MEMB     144      QMPE     O22      OBL     -0.630000       15.9994           0   0.00000     -0.301140E-02
     17855 MEMB     144      QMPE     C22      CTL2    -0.220000       12.0110           0   0.00000     -0.301140E-02
     17856 MEMB     144      QMPE     H2R      HAL2     0.900000E-01   1.00800           0   0.00000     -0.301140E-02
     17857 MEMB     144      QMPE     H2S      HAL2     0.900000E-01   1.00800           0   0.00000     -0.301140E-02
     17858 MEMB     144      QMPE     C3       CTL2     0.800000E-01   12.0110           0   0.00000     -0.301140E-02
     17859 MEMB     144      QMPE     HX       HAL2     0.900000E-01   1.00800           0   0.00000     -0.301140E-02
     17860 MEMB     144      QMPE     HY       HAL2     0.900000E-01   1.00800           0   0.00000     -0.301140E-02
     17861 MEMB     144      QMPE     O31      OSL     -0.490000       15.9994           0   0.00000     -0.301140E-02
     17862 MEMB     144      QMPE     C31      CL       0.900000       12.0110           0   0.00000     -0.301140E-02
     17863 MEMB     144      QMPE     O32      OBL     -0.630000       15.9994           0   0.00000     -0.301140E-02
     17864 MEMB     144      QMPE     C32      CTL2    -0.220000       12.0110           0   0.00000     -0.301140E-02
     17865 MEMB     144      QMPE     H2X      HAL2     0.900000E-01   1.00800           0   0.00000     -0.301140E-02
     17866 MEMB     144      QMPE     H2Y      HAL2     0.900000E-01   1.00800           0   0.00000     -0.301140E-02
     17867 MEMB     144      QMPE     C23      CTL2    -0.180000       12.0110           0   0.00000     -0.301140E-02
     17868 MEMB     144      QMPE     H3R      HAL2     0.900000E-01   1.00800           0   0.00000     -0.301140E-02
     17869 MEMB     144      QMPE     H3S      HAL2     0.900000E-01   1.00800           0   0.00000     -0.301140E-02
     17870 MEMB     144      QMPE     C24      CTL2    -0.180000       12.0110           0   0.00000     -0.301140E-02
     17871 MEMB     144      QMPE     H4R      HAL2     0.900000E-01   1.00800           0   0.00000     -0.301140E-02
     17872 MEMB     144      QMPE     H4S      HAL2     0.900000E-01   1.00800           0   0.00000     -0.301140E-02
     17873 MEMB     144      QMPE     C25      CTL2    -0.180000       12.0110           0   0.00000     -0.301140E-02
     17874 MEMB     144      QMPE     H5R      HAL2     0.900000E-01   1.00800           0   0.00000     -0.301140E-02
     17875 MEMB     144      QMPE     H5S      HAL2     0.900000E-01   1.00800           0   0.00000     -0.301140E-02
     17876 MEMB     144      QMPE     C26      CTL2    -0.180000       12.0110           0   0.00000     -0.301140E-02
     17877 MEMB     144      QMPE     H6R      HAL2     0.900000E-01   1.00800           0   0.00000     -0.301140E-02
     17878 MEMB     144      QMPE     H6S      HAL2     0.900000E-01   1.00800           0   0.00000     -0.301140E-02
     17879 MEMB     144      QMPE     C27      CTL2    -0.180000       12.0110           0   0.00000     -0.301140E-02
     17880 MEMB     144      QMPE     H7R      HAL2     0.900000E-01   1.00800           0   0.00000     -0.301140E-02
     17881 MEMB     144      QMPE     H7S      HAL2     0.900000E-01   1.00800           0   0.00000     -0.301140E-02
     17882 MEMB     144      QMPE     C28      CTL2    -0.180000       12.0110           0   0.00000     -0.301140E-02
     17883 MEMB     144      QMPE     H8R      HAL2     0.900000E-01   1.00800           0   0.00000     -0.301140E-02
     17884 MEMB     144      QMPE     H8S      HAL2     0.900000E-01   1.00800           0   0.00000     -0.301140E-02
     17885 MEMB     144      QMPE     C29      CG3RC1  -0.900000E-01   12.0110           0   0.00000     -0.301140E-02
     17886 MEMB     144      QMPE     H9R      HGA1     0.900000E-01   1.00800           0   0.00000     -0.301140E-02
     17887 MEMB     144      QMPE     C217     CG3C31  -0.180000       12.0110           0   0.00000     -0.301140E-02
     17888 MEMB     144      QMPE     H17R     HGA2     0.900000E-01   1.00800           0   0.00000     -0.301140E-02
     17889 MEMB     144      QMPE     H17S     HGA2     0.900000E-01   1.00800           0   0.00000     -0.301140E-02
     17890 MEMB     144      QMPE     C210     CG3RC1  -0.900000E-01   12.0110           0   0.00000     -0.301140E-02
     17891 MEMB     144      QMPE     H10R     HGA1     0.900000E-01   1.00800           0   0.00000     -0.301140E-02
     17892 MEMB     144      QMPE     C211     CTL2    -0.180000       12.0110           0   0.00000     -0.301140E-02
     17893 MEMB     144      QMPE     H11R     HAL2     0.900000E-01   1.00800           0   0.00000     -0.301140E-02
     17894 MEMB     144      QMPE     H11S     HAL2     0.900000E-01   1.00800           0   0.00000     -0.301140E-02
     17895 MEMB     144      QMPE     C212     CTL2    -0.180000       12.0110           0   0.00000     -0.301140E-02
     17896 MEMB     144      QMPE     H12R     HAL2     0.900000E-01   1.00800           0   0.00000     -0.301140E-02
     17897 MEMB     144      QMPE     H12S     HAL2     0.900000E-01   1.00800           0   0.00000     -0.301140E-02
     17898 MEMB     144      QMPE     C213     CTL2    -0.180000       12.0110           0   0.00000     -0.301140E-02
     17899 MEMB     144      QMPE     H13R     HAL2     0.900000E-01   1.00800           0   0.00000     -0.301140E-02
     17900 MEMB     144      QMPE     H13S     HAL2     0.900000E-01   1.00800           0   0.00000     -0.301140E-02
     17901 MEMB     144      QMPE     C214     CTL2    -0.180000       12.0110           0   0.00000     -0.301140E-02
     17902 MEMB     144      QMPE     H14R     HAL2     0.900000E-01   1.00800           0   0.00000     -0.301140E-02
     17903 MEMB     144      QMPE     H14S     HAL2     0.900000E-01   1.00800           0   0.00000     -0.301140E-02
     17904 MEMB     144      QMPE     C215     CTL2    -0.180000       12.0110           0   0.00000     -0.301140E-02
     17905 MEMB     144      QMPE     H15R     HAL2     0.900000E-01   1.00800           0   0.00000     -0.301140E-02
     17906 MEMB     144      QMPE     H15S     HAL2     0.900000E-01   1.00800           0   0.00000     -0.301140E-02
     17907 MEMB     144      QMPE     C216     CTL3    -0.270000       12.0110           0   0.00000     -0.301140E-02
     17908 MEMB     144      QMPE     H16R     HAL3     0.900000E-01   1.00800           0   0.00000     -0.301140E-02
     17909 MEMB     144      QMPE     H16S     HAL3     0.900000E-01   1.00800           0   0.00000     -0.301140E-02
     17910 MEMB     144      QMPE     H16T     HAL3     0.900000E-01   1.00800           0   0.00000     -0.301140E-02
     17911 MEMB     144      QMPE     C33      CTL2    -0.180000       12.0110           0   0.00000     -0.301140E-02
     17912 MEMB     144      QMPE     H3X      HAL2     0.900000E-01   1.00800           0   0.00000     -0.301140E-02
     17913 MEMB     144      QMPE     H3Y      HAL2     0.900000E-01   1.00800           0   0.00000     -0.301140E-02
     17914 MEMB     144      QMPE     C34      CTL2    -0.180000       12.0110           0   0.00000     -0.301140E-02
     17915 MEMB     144      QMPE     H4X      HAL2     0.900000E-01   1.00800           0   0.00000     -0.301140E-02
     17916 MEMB     144      QMPE     H4Y      HAL2     0.900000E-01   1.00800           0   0.00000     -0.301140E-02
     17917 MEMB     144      QMPE     C35      CTL2    -0.180000       12.0110           0   0.00000     -0.301140E-02
     17918 MEMB     144      QMPE     H5X      HAL2     0.900000E-01   1.00800           0   0.00000     -0.301140E-02
     17919 MEMB     144      QMPE     H5Y      HAL2     0.900000E-01   1.00800           0   0.00000     -0.301140E-02
     17920 MEMB     144      QMPE     C36      CTL2    -0.180000       12.0110           0   0.00000     -0.301140E-02
     17921 MEMB     144      QMPE     H6X      HAL2     0.900000E-01   1.00800           0   0.00000     -0.301140E-02
     17922 MEMB     144      QMPE     H6Y      HAL2     0.900000E-01   1.00800           0   0.00000     -0.301140E-02
     17923 MEMB     144      QMPE     C37      CTL2    -0.180000       12.0110           0   0.00000     -0.301140E-02
     17924 MEMB     144      QMPE     H7X      HAL2     0.900000E-01   1.00800           0   0.00000     -0.301140E-02
     17925 MEMB     144      QMPE     H7Y      HAL2     0.900000E-01   1.00800           0   0.00000     -0.301140E-02
     17926 MEMB     144      QMPE     C38      CTL2    -0.180000       12.0110           0   0.00000     -0.301140E-02
     17927 MEMB     144      QMPE     H8X      HAL2     0.900000E-01   1.00800           0   0.00000     -0.301140E-02
     17928 MEMB     144      QMPE     H8Y      HAL2     0.900000E-01   1.00800           0   0.00000     -0.301140E-02
     17929 MEMB     144      QMPE     C39      CTL2    -0.180000       12.0110           0   0.00000     -0.301140E-02
     17930 MEMB     144      QMPE     H9X      HAL2     0.900000E-01   1.00800           0   0.00000     -0.301140E-02
     17931 MEMB     144      QMPE     H9Y      HAL2     0.900000E-01   1.00800           0   0.00000     -0.301140E-02
     17932 MEMB     144      QMPE     C310     CTL2    -0.180000       12.0110           0   0.00000     -0.301140E-02
     17933 MEMB     144      QMPE     H10X     HAL2     0.900000E-01   1.00800           0   0.00000     -0.301140E-02
     17934 MEMB     144      QMPE     H10Y     HAL2     0.900000E-01   1.00800           0   0.00000     -0.301140E-02
     17935 MEMB     144      QMPE     C311     CTL2    -0.180000       12.0110           0   0.00000     -0.301140E-02
     17936 MEMB     144      QMPE     H11X     HAL2     0.900000E-01   1.00800           0   0.00000     -0.301140E-02
     17937 MEMB     144      QMPE     H11Y     HAL2     0.900000E-01   1.00800           0   0.00000     -0.301140E-02
     17938 MEMB     144      QMPE     C312     CTL2    -0.180000       12.0110           0   0.00000     -0.301140E-02
     17939 MEMB     144      QMPE     H12X     HAL2     0.900000E-01   1.00800           0   0.00000     -0.301140E-02
     17940 MEMB     144      QMPE     H12Y     HAL2     0.900000E-01   1.00800           0   0.00000     -0.301140E-02
     17941 MEMB     144      QMPE     C313     CTL2    -0.180000       12.0110           0   0.00000     -0.301140E-02
     17942 MEMB     144      QMPE     H13X     HAL2     0.900000E-01   1.00800           0   0.00000     -0.301140E-02
     17943 MEMB     144      QMPE     H13Y     HAL2     0.900000E-01   1.00800           0   0.00000     -0.301140E-02
     17944 MEMB     144      QMPE     C314     CTL2    -0.180000       12.0110           0   0.00000     -0.301140E-02
     17945 MEMB     144      QMPE     H14X     HAL2     0.900000E-01   1.00800           0   0.00000     -0.301140E-02
     17946 MEMB     144      QMPE     H14Y     HAL2     0.900000E-01   1.00800           0   0.00000     -0.301140E-02
     17947 MEMB     144      QMPE     C315     CTL3    -0.270000       12.0110           0   0.00000     -0.301140E-02
     17948 MEMB     144      QMPE     H15X     HAL3     0.900000E-01   1.00800           0   0.00000     -0.301140E-02
     17949 MEMB     144      QMPE     H15Y     HAL3     0.900000E-01   1.00800           0   0.00000     -0.301140E-02
     17950 MEMB     144      QMPE     H15Z     HAL3     0.900000E-01   1.00800           0   0.00000     -0.301140E-02
     17951 MEMB     145      QMPE     N        NH3L    -0.300000       14.0070           0   0.00000     -0.301140E-02
     17952 MEMB     145      QMPE     HN1      HCL      0.330000       1.00800           0   0.00000     -0.301140E-02
     17953 MEMB     145      QMPE     HN2      HCL      0.330000       1.00800           0   0.00000     -0.301140E-02
     17954 MEMB     145      QMPE     HN3      HCL      0.330000       1.00800           0   0.00000     -0.301140E-02
     17955 MEMB     145      QMPE     C12      CTL2     0.130000       12.0110           0   0.00000     -0.301140E-02
     17956 MEMB     145      QMPE     H12A     HAL2     0.900000E-01   1.00800           0   0.00000     -0.301140E-02
     17957 MEMB     145      QMPE     H12B     HAL2     0.900000E-01   1.00800           0   0.00000     -0.301140E-02
     17958 MEMB     145      QMPE     C11      CTL2    -0.800000E-01   12.0110           0   0.00000     -0.301140E-02
     17959 MEMB     145      QMPE     H11A     HAL2     0.900000E-01   1.00800           0   0.00000     -0.301140E-02
     17960 MEMB     145      QMPE     H11B     HAL2     0.900000E-01   1.00800           0   0.00000     -0.301140E-02
     17961 MEMB     145      QMPE     P        PL        1.50000       30.9740           0   0.00000     -0.301140E-02
     17962 MEMB     145      QMPE     O13      O2L     -0.780000       15.9994           0   0.00000     -0.301140E-02
     17963 MEMB     145      QMPE     O14      O2L     -0.780000       15.9994           0   0.00000     -0.301140E-02
     17964 MEMB     145      QMPE     O11      OSLP    -0.570000       15.9994           0   0.00000     -0.301140E-02
     17965 MEMB     145      QMPE     O12      OSLP    -0.570000       15.9994           0   0.00000     -0.301140E-02
     17966 MEMB     145      QMPE     C1       CTL2    -0.800000E-01   12.0110           0   0.00000     -0.301140E-02
     17967 MEMB     145      QMPE     HA       HAL2     0.900000E-01   1.00800           0   0.00000     -0.301140E-02
     17968 MEMB     145      QMPE     HB       HAL2     0.900000E-01   1.00800           0   0.00000     -0.301140E-02
     17969 MEMB     145      QMPE     C2       CTL1     0.170000       12.0110           0   0.00000     -0.301140E-02
     17970 MEMB     145      QMPE     HS       HAL1     0.900000E-01   1.00800           0   0.00000     -0.301140E-02
     17971 MEMB     145      QMPE     O21      OSL     -0.490000       15.9994           0   0.00000     -0.301140E-02
     17972 MEMB     145      QMPE     C21      CL       0.900000       12.0110           0   0.00000     -0.301140E-02
     17973 MEMB     145      QMPE     O22      OBL     -0.630000       15.9994           0   0.00000     -0.301140E-02
     17974 MEMB     145      QMPE     C22      CTL2    -0.220000       12.0110           0   0.00000     -0.301140E-02
     17975 MEMB     145      QMPE     H2R      HAL2     0.900000E-01   1.00800           0   0.00000     -0.301140E-02
     17976 MEMB     145      QMPE     H2S      HAL2     0.900000E-01   1.00800           0   0.00000     -0.301140E-02
     17977 MEMB     145      QMPE     C3       CTL2     0.800000E-01   12.0110           0   0.00000     -0.301140E-02
     17978 MEMB     145      QMPE     HX       HAL2     0.900000E-01   1.00800           0   0.00000     -0.301140E-02
     17979 MEMB     145      QMPE     HY       HAL2     0.900000E-01   1.00800           0   0.00000     -0.301140E-02
     17980 MEMB     145      QMPE     O31      OSL     -0.490000       15.9994           0   0.00000     -0.301140E-02
     17981 MEMB     145      QMPE     C31      CL       0.900000       12.0110           0   0.00000     -0.301140E-02
     17982 MEMB     145      QMPE     O32      OBL     -0.630000       15.9994           0   0.00000     -0.301140E-02
     17983 MEMB     145      QMPE     C32      CTL2    -0.220000       12.0110           0   0.00000     -0.301140E-02
     17984 MEMB     145      QMPE     H2X      HAL2     0.900000E-01   1.00800           0   0.00000     -0.301140E-02
     17985 MEMB     145      QMPE     H2Y      HAL2     0.900000E-01   1.00800           0   0.00000     -0.301140E-02
     17986 MEMB     145      QMPE     C23      CTL2    -0.180000       12.0110           0   0.00000     -0.301140E-02
     17987 MEMB     145      QMPE     H3R      HAL2     0.900000E-01   1.00800           0   0.00000     -0.301140E-02
     17988 MEMB     145      QMPE     H3S      HAL2     0.900000E-01   1.00800           0   0.00000     -0.301140E-02
     17989 MEMB     145      QMPE     C24      CTL2    -0.180000       12.0110           0   0.00000     -0.301140E-02
     17990 MEMB     145      QMPE     H4R      HAL2     0.900000E-01   1.00800           0   0.00000     -0.301140E-02
     17991 MEMB     145      QMPE     H4S      HAL2     0.900000E-01   1.00800           0   0.00000     -0.301140E-02
     17992 MEMB     145      QMPE     C25      CTL2    -0.180000       12.0110           0   0.00000     -0.301140E-02
     17993 MEMB     145      QMPE     H5R      HAL2     0.900000E-01   1.00800           0   0.00000     -0.301140E-02
     17994 MEMB     145      QMPE     H5S      HAL2     0.900000E-01   1.00800           0   0.00000     -0.301140E-02
     17995 MEMB     145      QMPE     C26      CTL2    -0.180000       12.0110           0   0.00000     -0.301140E-02
     17996 MEMB     145      QMPE     H6R      HAL2     0.900000E-01   1.00800           0   0.00000     -0.301140E-02
     17997 MEMB     145      QMPE     H6S      HAL2     0.900000E-01   1.00800           0   0.00000     -0.301140E-02
     17998 MEMB     145      QMPE     C27      CTL2    -0.180000       12.0110           0   0.00000     -0.301140E-02
     17999 MEMB     145      QMPE     H7R      HAL2     0.900000E-01   1.00800           0   0.00000     -0.301140E-02
     18000 MEMB     145      QMPE     H7S      HAL2     0.900000E-01   1.00800           0   0.00000     -0.301140E-02
     18001 MEMB     145      QMPE     C28      CTL2    -0.180000       12.0110           0   0.00000     -0.301140E-02
     18002 MEMB     145      QMPE     H8R      HAL2     0.900000E-01   1.00800           0   0.00000     -0.301140E-02
     18003 MEMB     145      QMPE     H8S      HAL2     0.900000E-01   1.00800           0   0.00000     -0.301140E-02
     18004 MEMB     145      QMPE     C29      CG3RC1  -0.900000E-01   12.0110           0   0.00000     -0.301140E-02
     18005 MEMB     145      QMPE     H9R      HGA1     0.900000E-01   1.00800           0   0.00000     -0.301140E-02
     18006 MEMB     145      QMPE     C217     CG3C31  -0.180000       12.0110           0   0.00000     -0.301140E-02
     18007 MEMB     145      QMPE     H17R     HGA2     0.900000E-01   1.00800           0   0.00000     -0.301140E-02
     18008 MEMB     145      QMPE     H17S     HGA2     0.900000E-01   1.00800           0   0.00000     -0.301140E-02
     18009 MEMB     145      QMPE     C210     CG3RC1  -0.900000E-01   12.0110           0   0.00000     -0.301140E-02
     18010 MEMB     145      QMPE     H10R     HGA1     0.900000E-01   1.00800           0   0.00000     -0.301140E-02
     18011 MEMB     145      QMPE     C211     CTL2    -0.180000       12.0110           0   0.00000     -0.301140E-02
     18012 MEMB     145      QMPE     H11R     HAL2     0.900000E-01   1.00800           0   0.00000     -0.301140E-02
     18013 MEMB     145      QMPE     H11S     HAL2     0.900000E-01   1.00800           0   0.00000     -0.301140E-02
     18014 MEMB     145      QMPE     C212     CTL2    -0.180000       12.0110           0   0.00000     -0.301140E-02
     18015 MEMB     145      QMPE     H12R     HAL2     0.900000E-01   1.00800           0   0.00000     -0.301140E-02
     18016 MEMB     145      QMPE     H12S     HAL2     0.900000E-01   1.00800           0   0.00000     -0.301140E-02
     18017 MEMB     145      QMPE     C213     CTL2    -0.180000       12.0110           0   0.00000     -0.301140E-02
     18018 MEMB     145      QMPE     H13R     HAL2     0.900000E-01   1.00800           0   0.00000     -0.301140E-02
     18019 MEMB     145      QMPE     H13S     HAL2     0.900000E-01   1.00800           0   0.00000     -0.301140E-02
     18020 MEMB     145      QMPE     C214     CTL2    -0.180000       12.0110           0   0.00000     -0.301140E-02
     18021 MEMB     145      QMPE     H14R     HAL2     0.900000E-01   1.00800           0   0.00000     -0.301140E-02
     18022 MEMB     145      QMPE     H14S     HAL2     0.900000E-01   1.00800           0   0.00000     -0.301140E-02
     18023 MEMB     145      QMPE     C215     CTL2    -0.180000       12.0110           0   0.00000     -0.301140E-02
     18024 MEMB     145      QMPE     H15R     HAL2     0.900000E-01   1.00800           0   0.00000     -0.301140E-02
     18025 MEMB     145      QMPE     H15S     HAL2     0.900000E-01   1.00800           0   0.00000     -0.301140E-02
     18026 MEMB     145      QMPE     C216     CTL3    -0.270000       12.0110           0   0.00000     -0.301140E-02
     18027 MEMB     145      QMPE     H16R     HAL3     0.900000E-01   1.00800           0   0.00000     -0.301140E-02
     18028 MEMB     145      QMPE     H16S     HAL3     0.900000E-01   1.00800           0   0.00000     -0.301140E-02
     18029 MEMB     145      QMPE     H16T     HAL3     0.900000E-01   1.00800           0   0.00000     -0.301140E-02
     18030 MEMB     145      QMPE     C33      CTL2    -0.180000       12.0110           0   0.00000     -0.301140E-02
     18031 MEMB     145      QMPE     H3X      HAL2     0.900000E-01   1.00800           0   0.00000     -0.301140E-02
     18032 MEMB     145      QMPE     H3Y      HAL2     0.900000E-01   1.00800           0   0.00000     -0.301140E-02
     18033 MEMB     145      QMPE     C34      CTL2    -0.180000       12.0110           0   0.00000     -0.301140E-02
     18034 MEMB     145      QMPE     H4X      HAL2     0.900000E-01   1.00800           0   0.00000     -0.301140E-02
     18035 MEMB     145      QMPE     H4Y      HAL2     0.900000E-01   1.00800           0   0.00000     -0.301140E-02
     18036 MEMB     145      QMPE     C35      CTL2    -0.180000       12.0110           0   0.00000     -0.301140E-02
     18037 MEMB     145      QMPE     H5X      HAL2     0.900000E-01   1.00800           0   0.00000     -0.301140E-02
     18038 MEMB     145      QMPE     H5Y      HAL2     0.900000E-01   1.00800           0   0.00000     -0.301140E-02
     18039 MEMB     145      QMPE     C36      CTL2    -0.180000       12.0110           0   0.00000     -0.301140E-02
     18040 MEMB     145      QMPE     H6X      HAL2     0.900000E-01   1.00800           0   0.00000     -0.301140E-02
     18041 MEMB     145      QMPE     H6Y      HAL2     0.900000E-01   1.00800           0   0.00000     -0.301140E-02
     18042 MEMB     145      QMPE     C37      CTL2    -0.180000       12.0110           0   0.00000     -0.301140E-02
     18043 MEMB     145      QMPE     H7X      HAL2     0.900000E-01   1.00800           0   0.00000     -0.301140E-02
     18044 MEMB     145      QMPE     H7Y      HAL2     0.900000E-01   1.00800           0   0.00000     -0.301140E-02
     18045 MEMB     145      QMPE     C38      CTL2    -0.180000       12.0110           0   0.00000     -0.301140E-02
     18046 MEMB     145      QMPE     H8X      HAL2     0.900000E-01   1.00800           0   0.00000     -0.301140E-02
     18047 MEMB     145      QMPE     H8Y      HAL2     0.900000E-01   1.00800           0   0.00000     -0.301140E-02
     18048 MEMB     145      QMPE     C39      CTL2    -0.180000       12.0110           0   0.00000     -0.301140E-02
     18049 MEMB     145      QMPE     H9X      HAL2     0.900000E-01   1.00800           0   0.00000     -0.301140E-02
     18050 MEMB     145      QMPE     H9Y      HAL2     0.900000E-01   1.00800           0   0.00000     -0.301140E-02
     18051 MEMB     145      QMPE     C310     CTL2    -0.180000       12.0110           0   0.00000     -0.301140E-02
     18052 MEMB     145      QMPE     H10X     HAL2     0.900000E-01   1.00800           0   0.00000     -0.301140E-02
     18053 MEMB     145      QMPE     H10Y     HAL2     0.900000E-01   1.00800           0   0.00000     -0.301140E-02
     18054 MEMB     145      QMPE     C311     CTL2    -0.180000       12.0110           0   0.00000     -0.301140E-02
     18055 MEMB     145      QMPE     H11X     HAL2     0.900000E-01   1.00800           0   0.00000     -0.301140E-02
     18056 MEMB     145      QMPE     H11Y     HAL2     0.900000E-01   1.00800           0   0.00000     -0.301140E-02
     18057 MEMB     145      QMPE     C312     CTL2    -0.180000       12.0110           0   0.00000     -0.301140E-02
     18058 MEMB     145      QMPE     H12X     HAL2     0.900000E-01   1.00800           0   0.00000     -0.301140E-02
     18059 MEMB     145      QMPE     H12Y     HAL2     0.900000E-01   1.00800           0   0.00000     -0.301140E-02
     18060 MEMB     145      QMPE     C313     CTL2    -0.180000       12.0110           0   0.00000     -0.301140E-02
     18061 MEMB     145      QMPE     H13X     HAL2     0.900000E-01   1.00800           0   0.00000     -0.301140E-02
     18062 MEMB     145      QMPE     H13Y     HAL2     0.900000E-01   1.00800           0   0.00000     -0.301140E-02
     18063 MEMB     145      QMPE     C314     CTL2    -0.180000       12.0110           0   0.00000     -0.301140E-02
     18064 MEMB     145      QMPE     H14X     HAL2     0.900000E-01   1.00800           0   0.00000     -0.301140E-02
     18065 MEMB     145      QMPE     H14Y     HAL2     0.900000E-01   1.00800           0   0.00000     -0.301140E-02
     18066 MEMB     145      QMPE     C315     CTL3    -0.270000       12.0110           0   0.00000     -0.301140E-02
     18067 MEMB     145      QMPE     H15X     HAL3     0.900000E-01   1.00800           0   0.00000     -0.301140E-02
     18068 MEMB     145      QMPE     H15Y     HAL3     0.900000E-01   1.00800           0   0.00000     -0.301140E-02
     18069 MEMB     145      QMPE     H15Z     HAL3     0.900000E-01   1.00800           0   0.00000     -0.301140E-02
     18070 MEMB     146      PMPE     N        NH3L    -0.300000       14.0070           0   0.00000     -0.301140E-02
     18071 MEMB     146      PMPE     HN1      HCL      0.330000       1.00800           0   0.00000     -0.301140E-02
     18072 MEMB     146      PMPE     HN2      HCL      0.330000       1.00800           0   0.00000     -0.301140E-02
     18073 MEMB     146      PMPE     HN3      HCL      0.330000       1.00800           0   0.00000     -0.301140E-02
     18074 MEMB     146      PMPE     C12      CTL2     0.130000       12.0110           0   0.00000     -0.301140E-02
     18075 MEMB     146      PMPE     H12A     HAL2     0.900000E-01   1.00800           0   0.00000     -0.301140E-02
     18076 MEMB     146      PMPE     H12B     HAL2     0.900000E-01   1.00800           0   0.00000     -0.301140E-02
     18077 MEMB     146      PMPE     C11      CTL2    -0.800000E-01   12.0110           0   0.00000     -0.301140E-02
     18078 MEMB     146      PMPE     H11A     HAL2     0.900000E-01   1.00800           0   0.00000     -0.301140E-02
     18079 MEMB     146      PMPE     H11B     HAL2     0.900000E-01   1.00800           0   0.00000     -0.301140E-02
     18080 MEMB     146      PMPE     P        PL        1.50000       30.9740           0   0.00000     -0.301140E-02
     18081 MEMB     146      PMPE     O13      O2L     -0.780000       15.9994           0   0.00000     -0.301140E-02
     18082 MEMB     146      PMPE     O14      O2L     -0.780000       15.9994           0   0.00000     -0.301140E-02
     18083 MEMB     146      PMPE     O11      OSLP    -0.570000       15.9994           0   0.00000     -0.301140E-02
     18084 MEMB     146      PMPE     O12      OSLP    -0.570000       15.9994           0   0.00000     -0.301140E-02
     18085 MEMB     146      PMPE     C1       CTL2    -0.800000E-01   12.0110           0   0.00000     -0.301140E-02
     18086 MEMB     146      PMPE     HA       HAL2     0.900000E-01   1.00800           0   0.00000     -0.301140E-02
     18087 MEMB     146      PMPE     HB       HAL2     0.900000E-01   1.00800           0   0.00000     -0.301140E-02
     18088 MEMB     146      PMPE     C2       CTL1     0.170000       12.0110           0   0.00000     -0.301140E-02
     18089 MEMB     146      PMPE     HS       HAL1     0.900000E-01   1.00800           0   0.00000     -0.301140E-02
     18090 MEMB     146      PMPE     O21      OSL     -0.490000       15.9994           0   0.00000     -0.301140E-02
     18091 MEMB     146      PMPE     C21      CL       0.900000       12.0110           0   0.00000     -0.301140E-02
     18092 MEMB     146      PMPE     O22      OBL     -0.630000       15.9994           0   0.00000     -0.301140E-02
     18093 MEMB     146      PMPE     C22      CTL2    -0.220000       12.0110           0   0.00000     -0.301140E-02
     18094 MEMB     146      PMPE     H2R      HAL2     0.900000E-01   1.00800           0   0.00000     -0.301140E-02
     18095 MEMB     146      PMPE     H2S      HAL2     0.900000E-01   1.00800           0   0.00000     -0.301140E-02
     18096 MEMB     146      PMPE     C3       CTL2     0.800000E-01   12.0110           0   0.00000     -0.301140E-02
     18097 MEMB     146      PMPE     HX       HAL2     0.900000E-01   1.00800           0   0.00000     -0.301140E-02
     18098 MEMB     146      PMPE     HY       HAL2     0.900000E-01   1.00800           0   0.00000     -0.301140E-02
     18099 MEMB     146      PMPE     O31      OSL     -0.490000       15.9994           0   0.00000     -0.301140E-02
     18100 MEMB     146      PMPE     C31      CL       0.900000       12.0110           0   0.00000     -0.301140E-02
     18101 MEMB     146      PMPE     O32      OBL     -0.630000       15.9994           0   0.00000     -0.301140E-02
     18102 MEMB     146      PMPE     C32      CTL2    -0.220000       12.0110           0   0.00000     -0.301140E-02
     18103 MEMB     146      PMPE     H2X      HAL2     0.900000E-01   1.00800           0   0.00000     -0.301140E-02
     18104 MEMB     146      PMPE     H2Y      HAL2     0.900000E-01   1.00800           0   0.00000     -0.301140E-02
     18105 MEMB     146      PMPE     C23      CTL2    -0.180000       12.0110           0   0.00000     -0.301140E-02
     18106 MEMB     146      PMPE     H3R      HAL2     0.900000E-01   1.00800           0   0.00000     -0.301140E-02
     18107 MEMB     146      PMPE     H3S      HAL2     0.900000E-01   1.00800           0   0.00000     -0.301140E-02
     18108 MEMB     146      PMPE     C24      CTL2    -0.180000       12.0110           0   0.00000     -0.301140E-02
     18109 MEMB     146      PMPE     H4R      HAL2     0.900000E-01   1.00800           0   0.00000     -0.301140E-02
     18110 MEMB     146      PMPE     H4S      HAL2     0.900000E-01   1.00800           0   0.00000     -0.301140E-02
     18111 MEMB     146      PMPE     C25      CTL2    -0.180000       12.0110           0   0.00000     -0.301140E-02
     18112 MEMB     146      PMPE     H5R      HAL2     0.900000E-01   1.00800           0   0.00000     -0.301140E-02
     18113 MEMB     146      PMPE     H5S      HAL2     0.900000E-01   1.00800           0   0.00000     -0.301140E-02
     18114 MEMB     146      PMPE     C26      CTL2    -0.180000       12.0110           0   0.00000     -0.301140E-02
     18115 MEMB     146      PMPE     H6R      HAL2     0.900000E-01   1.00800           0   0.00000     -0.301140E-02
     18116 MEMB     146      PMPE     H6S      HAL2     0.900000E-01   1.00800           0   0.00000     -0.301140E-02
     18117 MEMB     146      PMPE     C27      CTL2    -0.180000       12.0110           0   0.00000     -0.301140E-02
     18118 MEMB     146      PMPE     H7R      HAL2     0.900000E-01   1.00800           0   0.00000     -0.301140E-02
     18119 MEMB     146      PMPE     H7S      HAL2     0.900000E-01   1.00800           0   0.00000     -0.301140E-02
     18120 MEMB     146      PMPE     C28      CTL2    -0.180000       12.0110           0   0.00000     -0.301140E-02
     18121 MEMB     146      PMPE     H8R      HAL2     0.900000E-01   1.00800           0   0.00000     -0.301140E-02
     18122 MEMB     146      PMPE     H8S      HAL2     0.900000E-01   1.00800           0   0.00000     -0.301140E-02
     18123 MEMB     146      PMPE     C29      CG3RC1  -0.900000E-01   12.0110           0   0.00000     -0.301140E-02
     18124 MEMB     146      PMPE     H9R      HGA1     0.900000E-01   1.00800           0   0.00000     -0.301140E-02
     18125 MEMB     146      PMPE     C217     CG3C31  -0.180000       12.0110           0   0.00000     -0.301140E-02
     18126 MEMB     146      PMPE     H17R     HGA2     0.900000E-01   1.00800           0   0.00000     -0.301140E-02
     18127 MEMB     146      PMPE     H17S     HGA2     0.900000E-01   1.00800           0   0.00000     -0.301140E-02
     18128 MEMB     146      PMPE     C210     CG3RC1  -0.900000E-01   12.0110           0   0.00000     -0.301140E-02
     18129 MEMB     146      PMPE     H10R     HGA1     0.900000E-01   1.00800           0   0.00000     -0.301140E-02
     18130 MEMB     146      PMPE     C211     CTL2    -0.180000       12.0110           0   0.00000     -0.301140E-02
     18131 MEMB     146      PMPE     H11R     HAL2     0.900000E-01   1.00800           0   0.00000     -0.301140E-02
     18132 MEMB     146      PMPE     H11S     HAL2     0.900000E-01   1.00800           0   0.00000     -0.301140E-02
     18133 MEMB     146      PMPE     C212     CTL2    -0.180000       12.0110           0   0.00000     -0.301140E-02
     18134 MEMB     146      PMPE     H12R     HAL2     0.900000E-01   1.00800           0   0.00000     -0.301140E-02
     18135 MEMB     146      PMPE     H12S     HAL2     0.900000E-01   1.00800           0   0.00000     -0.301140E-02
     18136 MEMB     146      PMPE     C213     CTL2    -0.180000       12.0110           0   0.00000     -0.301140E-02
     18137 MEMB     146      PMPE     H13R     HAL2     0.900000E-01   1.00800           0   0.00000     -0.301140E-02
     18138 MEMB     146      PMPE     H13S     HAL2     0.900000E-01   1.00800           0   0.00000     -0.301140E-02
     18139 MEMB     146      PMPE     C214     CTL2    -0.180000       12.0110           0   0.00000     -0.301140E-02
     18140 MEMB     146      PMPE     H14R     HAL2     0.900000E-01   1.00800           0   0.00000     -0.301140E-02
     18141 MEMB     146      PMPE     H14S     HAL2     0.900000E-01   1.00800           0   0.00000     -0.301140E-02
     18142 MEMB     146      PMPE     C215     CTL2    -0.180000       12.0110           0   0.00000     -0.301140E-02
     18143 MEMB     146      PMPE     H15R     HAL2     0.900000E-01   1.00800           0   0.00000     -0.301140E-02
     18144 MEMB     146      PMPE     H15S     HAL2     0.900000E-01   1.00800           0   0.00000     -0.301140E-02
     18145 MEMB     146      PMPE     C216     CTL3    -0.270000       12.0110           0   0.00000     -0.301140E-02
     18146 MEMB     146      PMPE     H16R     HAL3     0.900000E-01   1.00800           0   0.00000     -0.301140E-02
     18147 MEMB     146      PMPE     H16S     HAL3     0.900000E-01   1.00800           0   0.00000     -0.301140E-02
     18148 MEMB     146      PMPE     H16T     HAL3     0.900000E-01   1.00800           0   0.00000     -0.301140E-02
     18149 MEMB     146      PMPE     C33      CTL2    -0.180000       12.0110           0   0.00000     -0.301140E-02
     18150 MEMB     146      PMPE     H3X      HAL2     0.900000E-01   1.00800           0   0.00000     -0.301140E-02
     18151 MEMB     146      PMPE     H3Y      HAL2     0.900000E-01   1.00800           0   0.00000     -0.301140E-02
     18152 MEMB     146      PMPE     C34      CTL2    -0.180000       12.0110           0   0.00000     -0.301140E-02
     18153 MEMB     146      PMPE     H4X      HAL2     0.900000E-01   1.00800           0   0.00000     -0.301140E-02
     18154 MEMB     146      PMPE     H4Y      HAL2     0.900000E-01   1.00800           0   0.00000     -0.301140E-02
     18155 MEMB     146      PMPE     C35      CTL2    -0.180000       12.0110           0   0.00000     -0.301140E-02
     18156 MEMB     146      PMPE     H5X      HAL2     0.900000E-01   1.00800           0   0.00000     -0.301140E-02
     18157 MEMB     146      PMPE     H5Y      HAL2     0.900000E-01   1.00800           0   0.00000     -0.301140E-02
     18158 MEMB     146      PMPE     C36      CTL2    -0.180000       12.0110           0   0.00000     -0.301140E-02
     18159 MEMB     146      PMPE     H6X      HAL2     0.900000E-01   1.00800           0   0.00000     -0.301140E-02
     18160 MEMB     146      PMPE     H6Y      HAL2     0.900000E-01   1.00800           0   0.00000     -0.301140E-02
     18161 MEMB     146      PMPE     C37      CTL2    -0.180000       12.0110           0   0.00000     -0.301140E-02
     18162 MEMB     146      PMPE     H7X      HAL2     0.900000E-01   1.00800           0   0.00000     -0.301140E-02
     18163 MEMB     146      PMPE     H7Y      HAL2     0.900000E-01   1.00800           0   0.00000     -0.301140E-02
     18164 MEMB     146      PMPE     C38      CTL2    -0.180000       12.0110           0   0.00000     -0.301140E-02
     18165 MEMB     146      PMPE     H8X      HAL2     0.900000E-01   1.00800           0   0.00000     -0.301140E-02
     18166 MEMB     146      PMPE     H8Y      HAL2     0.900000E-01   1.00800           0   0.00000     -0.301140E-02
     18167 MEMB     146      PMPE     C39      CTL2    -0.180000       12.0110           0   0.00000     -0.301140E-02
     18168 MEMB     146      PMPE     H9X      HAL2     0.900000E-01   1.00800           0   0.00000     -0.301140E-02
     18169 MEMB     146      PMPE     H9Y      HAL2     0.900000E-01   1.00800           0   0.00000     -0.301140E-02
     18170 MEMB     146      PMPE     C310     CTL2    -0.180000       12.0110           0   0.00000     -0.301140E-02
     18171 MEMB     146      PMPE     H10X     HAL2     0.900000E-01   1.00800           0   0.00000     -0.301140E-02
     18172 MEMB     146      PMPE     H10Y     HAL2     0.900000E-01   1.00800           0   0.00000     -0.301140E-02
     18173 MEMB     146      PMPE     C311     CTL2    -0.180000       12.0110           0   0.00000     -0.301140E-02
     18174 MEMB     146      PMPE     H11X     HAL2     0.900000E-01   1.00800           0   0.00000     -0.301140E-02
     18175 MEMB     146      PMPE     H11Y     HAL2     0.900000E-01   1.00800           0   0.00000     -0.301140E-02
     18176 MEMB     146      PMPE     C312     CTL2    -0.180000       12.0110           0   0.00000     -0.301140E-02
     18177 MEMB     146      PMPE     H12X     HAL2     0.900000E-01   1.00800           0   0.00000     -0.301140E-02
     18178 MEMB     146      PMPE     H12Y     HAL2     0.900000E-01   1.00800           0   0.00000     -0.301140E-02
     18179 MEMB     146      PMPE     C313     CTL2    -0.180000       12.0110           0   0.00000     -0.301140E-02
     18180 MEMB     146      PMPE     H13X     HAL2     0.900000E-01   1.00800           0   0.00000     -0.301140E-02
     18181 MEMB     146      PMPE     H13Y     HAL2     0.900000E-01   1.00800           0   0.00000     -0.301140E-02
     18182 MEMB     146      PMPE     C314     CTL2    -0.180000       12.0110           0   0.00000     -0.301140E-02
     18183 MEMB     146      PMPE     H14X     HAL2     0.900000E-01   1.00800           0   0.00000     -0.301140E-02
     18184 MEMB     146      PMPE     H14Y     HAL2     0.900000E-01   1.00800           0   0.00000     -0.301140E-02
     18185 MEMB     146      PMPE     C315     CTL2    -0.180000       12.0110           0   0.00000     -0.301140E-02
     18186 MEMB     146      PMPE     H15X     HAL2     0.900000E-01   1.00800           0   0.00000     -0.301140E-02
     18187 MEMB     146      PMPE     H15Y     HAL2     0.900000E-01   1.00800           0   0.00000     -0.301140E-02
     18188 MEMB     146      PMPE     C316     CTL3    -0.270000       12.0110           0   0.00000     -0.301140E-02
     18189 MEMB     146      PMPE     H16X     HAL3     0.900000E-01   1.00800           0   0.00000     -0.301140E-02
     18190 MEMB     146      PMPE     H16Y     HAL3     0.900000E-01   1.00800           0   0.00000     -0.301140E-02
     18191 MEMB     146      PMPE     H16Z     HAL3     0.900000E-01   1.00800           0   0.00000     -0.301140E-02
     18192 MEMB     147      PMPE     N        NH3L    -0.300000       14.0070           0   0.00000     -0.301140E-02
     18193 MEMB     147      PMPE     HN1      HCL      0.330000       1.00800           0   0.00000     -0.301140E-02
     18194 MEMB     147      PMPE     HN2      HCL      0.330000       1.00800           0   0.00000     -0.301140E-02
     18195 MEMB     147      PMPE     HN3      HCL      0.330000       1.00800           0   0.00000     -0.301140E-02
     18196 MEMB     147      PMPE     C12      CTL2     0.130000       12.0110           0   0.00000     -0.301140E-02
     18197 MEMB     147      PMPE     H12A     HAL2     0.900000E-01   1.00800           0   0.00000     -0.301140E-02
     18198 MEMB     147      PMPE     H12B     HAL2     0.900000E-01   1.00800           0   0.00000     -0.301140E-02
     18199 MEMB     147      PMPE     C11      CTL2    -0.800000E-01   12.0110           0   0.00000     -0.301140E-02
     18200 MEMB     147      PMPE     H11A     HAL2     0.900000E-01   1.00800           0   0.00000     -0.301140E-02
     18201 MEMB     147      PMPE     H11B     HAL2     0.900000E-01   1.00800           0   0.00000     -0.301140E-02
     18202 MEMB     147      PMPE     P        PL        1.50000       30.9740           0   0.00000     -0.301140E-02
     18203 MEMB     147      PMPE     O13      O2L     -0.780000       15.9994           0   0.00000     -0.301140E-02
     18204 MEMB     147      PMPE     O14      O2L     -0.780000       15.9994           0   0.00000     -0.301140E-02
     18205 MEMB     147      PMPE     O11      OSLP    -0.570000       15.9994           0   0.00000     -0.301140E-02
     18206 MEMB     147      PMPE     O12      OSLP    -0.570000       15.9994           0   0.00000     -0.301140E-02
     18207 MEMB     147      PMPE     C1       CTL2    -0.800000E-01   12.0110           0   0.00000     -0.301140E-02
     18208 MEMB     147      PMPE     HA       HAL2     0.900000E-01   1.00800           0   0.00000     -0.301140E-02
     18209 MEMB     147      PMPE     HB       HAL2     0.900000E-01   1.00800           0   0.00000     -0.301140E-02
     18210 MEMB     147      PMPE     C2       CTL1     0.170000       12.0110           0   0.00000     -0.301140E-02
     18211 MEMB     147      PMPE     HS       HAL1     0.900000E-01   1.00800           0   0.00000     -0.301140E-02
     18212 MEMB     147      PMPE     O21      OSL     -0.490000       15.9994           0   0.00000     -0.301140E-02
     18213 MEMB     147      PMPE     C21      CL       0.900000       12.0110           0   0.00000     -0.301140E-02
     18214 MEMB     147      PMPE     O22      OBL     -0.630000       15.9994           0   0.00000     -0.301140E-02
     18215 MEMB     147      PMPE     C22      CTL2    -0.220000       12.0110           0   0.00000     -0.301140E-02
     18216 MEMB     147      PMPE     H2R      HAL2     0.900000E-01   1.00800           0   0.00000     -0.301140E-02
     18217 MEMB     147      PMPE     H2S      HAL2     0.900000E-01   1.00800           0   0.00000     -0.301140E-02
     18218 MEMB     147      PMPE     C3       CTL2     0.800000E-01   12.0110           0   0.00000     -0.301140E-02
     18219 MEMB     147      PMPE     HX       HAL2     0.900000E-01   1.00800           0   0.00000     -0.301140E-02
     18220 MEMB     147      PMPE     HY       HAL2     0.900000E-01   1.00800           0   0.00000     -0.301140E-02
     18221 MEMB     147      PMPE     O31      OSL     -0.490000       15.9994           0   0.00000     -0.301140E-02
     18222 MEMB     147      PMPE     C31      CL       0.900000       12.0110           0   0.00000     -0.301140E-02
     18223 MEMB     147      PMPE     O32      OBL     -0.630000       15.9994           0   0.00000     -0.301140E-02
     18224 MEMB     147      PMPE     C32      CTL2    -0.220000       12.0110           0   0.00000     -0.301140E-02
     18225 MEMB     147      PMPE     H2X      HAL2     0.900000E-01   1.00800           0   0.00000     -0.301140E-02
     18226 MEMB     147      PMPE     H2Y      HAL2     0.900000E-01   1.00800           0   0.00000     -0.301140E-02
     18227 MEMB     147      PMPE     C23      CTL2    -0.180000       12.0110           0   0.00000     -0.301140E-02
     18228 MEMB     147      PMPE     H3R      HAL2     0.900000E-01   1.00800           0   0.00000     -0.301140E-02
     18229 MEMB     147      PMPE     H3S      HAL2     0.900000E-01   1.00800           0   0.00000     -0.301140E-02
     18230 MEMB     147      PMPE     C24      CTL2    -0.180000       12.0110           0   0.00000     -0.301140E-02
     18231 MEMB     147      PMPE     H4R      HAL2     0.900000E-01   1.00800           0   0.00000     -0.301140E-02
     18232 MEMB     147      PMPE     H4S      HAL2     0.900000E-01   1.00800           0   0.00000     -0.301140E-02
     18233 MEMB     147      PMPE     C25      CTL2    -0.180000       12.0110           0   0.00000     -0.301140E-02
     18234 MEMB     147      PMPE     H5R      HAL2     0.900000E-01   1.00800           0   0.00000     -0.301140E-02
     18235 MEMB     147      PMPE     H5S      HAL2     0.900000E-01   1.00800           0   0.00000     -0.301140E-02
     18236 MEMB     147      PMPE     C26      CTL2    -0.180000       12.0110           0   0.00000     -0.301140E-02
     18237 MEMB     147      PMPE     H6R      HAL2     0.900000E-01   1.00800           0   0.00000     -0.301140E-02
     18238 MEMB     147      PMPE     H6S      HAL2     0.900000E-01   1.00800           0   0.00000     -0.301140E-02
     18239 MEMB     147      PMPE     C27      CTL2    -0.180000       12.0110           0   0.00000     -0.301140E-02
     18240 MEMB     147      PMPE     H7R      HAL2     0.900000E-01   1.00800           0   0.00000     -0.301140E-02
     18241 MEMB     147      PMPE     H7S      HAL2     0.900000E-01   1.00800           0   0.00000     -0.301140E-02
     18242 MEMB     147      PMPE     C28      CTL2    -0.180000       12.0110           0   0.00000     -0.301140E-02
     18243 MEMB     147      PMPE     H8R      HAL2     0.900000E-01   1.00800           0   0.00000     -0.301140E-02
     18244 MEMB     147      PMPE     H8S      HAL2     0.900000E-01   1.00800           0   0.00000     -0.301140E-02
     18245 MEMB     147      PMPE     C29      CG3RC1  -0.900000E-01   12.0110           0   0.00000     -0.301140E-02
     18246 MEMB     147      PMPE     H9R      HGA1     0.900000E-01   1.00800           0   0.00000     -0.301140E-02
     18247 MEMB     147      PMPE     C217     CG3C31  -0.180000       12.0110           0   0.00000     -0.301140E-02
     18248 MEMB     147      PMPE     H17R     HGA2     0.900000E-01   1.00800           0   0.00000     -0.301140E-02
     18249 MEMB     147      PMPE     H17S     HGA2     0.900000E-01   1.00800           0   0.00000     -0.301140E-02
     18250 MEMB     147      PMPE     C210     CG3RC1  -0.900000E-01   12.0110           0   0.00000     -0.301140E-02
     18251 MEMB     147      PMPE     H10R     HGA1     0.900000E-01   1.00800           0   0.00000     -0.301140E-02
     18252 MEMB     147      PMPE     C211     CTL2    -0.180000       12.0110           0   0.00000     -0.301140E-02
     18253 MEMB     147      PMPE     H11R     HAL2     0.900000E-01   1.00800           0   0.00000     -0.301140E-02
     18254 MEMB     147      PMPE     H11S     HAL2     0.900000E-01   1.00800           0   0.00000     -0.301140E-02
     18255 MEMB     147      PMPE     C212     CTL2    -0.180000       12.0110           0   0.00000     -0.301140E-02
     18256 MEMB     147      PMPE     H12R     HAL2     0.900000E-01   1.00800           0   0.00000     -0.301140E-02
     18257 MEMB     147      PMPE     H12S     HAL2     0.900000E-01   1.00800           0   0.00000     -0.301140E-02
     18258 MEMB     147      PMPE     C213     CTL2    -0.180000       12.0110           0   0.00000     -0.301140E-02
     18259 MEMB     147      PMPE     H13R     HAL2     0.900000E-01   1.00800           0   0.00000     -0.301140E-02
     18260 MEMB     147      PMPE     H13S     HAL2     0.900000E-01   1.00800           0   0.00000     -0.301140E-02
     18261 MEMB     147      PMPE     C214     CTL2    -0.180000       12.0110           0   0.00000     -0.301140E-02
     18262 MEMB     147      PMPE     H14R     HAL2     0.900000E-01   1.00800           0   0.00000     -0.301140E-02
     18263 MEMB     147      PMPE     H14S     HAL2     0.900000E-01   1.00800           0   0.00000     -0.301140E-02
     18264 MEMB     147      PMPE     C215     CTL2    -0.180000       12.0110           0   0.00000     -0.301140E-02
     18265 MEMB     147      PMPE     H15R     HAL2     0.900000E-01   1.00800           0   0.00000     -0.301140E-02
     18266 MEMB     147      PMPE     H15S     HAL2     0.900000E-01   1.00800           0   0.00000     -0.301140E-02
     18267 MEMB     147      PMPE     C216     CTL3    -0.270000       12.0110           0   0.00000     -0.301140E-02
     18268 MEMB     147      PMPE     H16R     HAL3     0.900000E-01   1.00800           0   0.00000     -0.301140E-02
     18269 MEMB     147      PMPE     H16S     HAL3     0.900000E-01   1.00800           0   0.00000     -0.301140E-02
     18270 MEMB     147      PMPE     H16T     HAL3     0.900000E-01   1.00800           0   0.00000     -0.301140E-02
     18271 MEMB     147      PMPE     C33      CTL2    -0.180000       12.0110           0   0.00000     -0.301140E-02
     18272 MEMB     147      PMPE     H3X      HAL2     0.900000E-01   1.00800           0   0.00000     -0.301140E-02
     18273 MEMB     147      PMPE     H3Y      HAL2     0.900000E-01   1.00800           0   0.00000     -0.301140E-02
     18274 MEMB     147      PMPE     C34      CTL2    -0.180000       12.0110           0   0.00000     -0.301140E-02
     18275 MEMB     147      PMPE     H4X      HAL2     0.900000E-01   1.00800           0   0.00000     -0.301140E-02
     18276 MEMB     147      PMPE     H4Y      HAL2     0.900000E-01   1.00800           0   0.00000     -0.301140E-02
     18277 MEMB     147      PMPE     C35      CTL2    -0.180000       12.0110           0   0.00000     -0.301140E-02
     18278 MEMB     147      PMPE     H5X      HAL2     0.900000E-01   1.00800           0   0.00000     -0.301140E-02
     18279 MEMB     147      PMPE     H5Y      HAL2     0.900000E-01   1.00800           0   0.00000     -0.301140E-02
     18280 MEMB     147      PMPE     C36      CTL2    -0.180000       12.0110           0   0.00000     -0.301140E-02
     18281 MEMB     147      PMPE     H6X      HAL2     0.900000E-01   1.00800           0   0.00000     -0.301140E-02
     18282 MEMB     147      PMPE     H6Y      HAL2     0.900000E-01   1.00800           0   0.00000     -0.301140E-02
     18283 MEMB     147      PMPE     C37      CTL2    -0.180000       12.0110           0   0.00000     -0.301140E-02
     18284 MEMB     147      PMPE     H7X      HAL2     0.900000E-01   1.00800           0   0.00000     -0.301140E-02
     18285 MEMB     147      PMPE     H7Y      HAL2     0.900000E-01   1.00800           0   0.00000     -0.301140E-02
     18286 MEMB     147      PMPE     C38      CTL2    -0.180000       12.0110           0   0.00000     -0.301140E-02
     18287 MEMB     147      PMPE     H8X      HAL2     0.900000E-01   1.00800           0   0.00000     -0.301140E-02
     18288 MEMB     147      PMPE     H8Y      HAL2     0.900000E-01   1.00800           0   0.00000     -0.301140E-02
     18289 MEMB     147      PMPE     C39      CTL2    -0.180000       12.0110           0   0.00000     -0.301140E-02
     18290 MEMB     147      PMPE     H9X      HAL2     0.900000E-01   1.00800           0   0.00000     -0.301140E-02
     18291 MEMB     147      PMPE     H9Y      HAL2     0.900000E-01   1.00800           0   0.00000     -0.301140E-02
     18292 MEMB     147      PMPE     C310     CTL2    -0.180000       12.0110           0   0.00000     -0.301140E-02
     18293 MEMB     147      PMPE     H10X     HAL2     0.900000E-01   1.00800           0   0.00000     -0.301140E-02
     18294 MEMB     147      PMPE     H10Y     HAL2     0.900000E-01   1.00800           0   0.00000     -0.301140E-02
     18295 MEMB     147      PMPE     C311     CTL2    -0.180000       12.0110           0   0.00000     -0.301140E-02
     18296 MEMB     147      PMPE     H11X     HAL2     0.900000E-01   1.00800           0   0.00000     -0.301140E-02
     18297 MEMB     147      PMPE     H11Y     HAL2     0.900000E-01   1.00800           0   0.00000     -0.301140E-02
     18298 MEMB     147      PMPE     C312     CTL2    -0.180000       12.0110           0   0.00000     -0.301140E-02
     18299 MEMB     147      PMPE     H12X     HAL2     0.900000E-01   1.00800           0   0.00000     -0.301140E-02
     18300 MEMB     147      PMPE     H12Y     HAL2     0.900000E-01   1.00800           0   0.00000     -0.301140E-02
     18301 MEMB     147      PMPE     C313     CTL2    -0.180000       12.0110           0   0.00000     -0.301140E-02
     18302 MEMB     147      PMPE     H13X     HAL2     0.900000E-01   1.00800           0   0.00000     -0.301140E-02
     18303 MEMB     147      PMPE     H13Y     HAL2     0.900000E-01   1.00800           0   0.00000     -0.301140E-02
     18304 MEMB     147      PMPE     C314     CTL2    -0.180000       12.0110           0   0.00000     -0.301140E-02
     18305 MEMB     147      PMPE     H14X     HAL2     0.900000E-01   1.00800           0   0.00000     -0.301140E-02
     18306 MEMB     147      PMPE     H14Y     HAL2     0.900000E-01   1.00800           0   0.00000     -0.301140E-02
     18307 MEMB     147      PMPE     C315     CTL2    -0.180000       12.0110           0   0.00000     -0.301140E-02
     18308 MEMB     147      PMPE     H15X     HAL2     0.900000E-01   1.00800           0   0.00000     -0.301140E-02
     18309 MEMB     147      PMPE     H15Y     HAL2     0.900000E-01   1.00800           0   0.00000     -0.301140E-02
     18310 MEMB     147      PMPE     C316     CTL3    -0.270000       12.0110           0   0.00000     -0.301140E-02
     18311 MEMB     147      PMPE     H16X     HAL3     0.900000E-01   1.00800           0   0.00000     -0.301140E-02
     18312 MEMB     147      PMPE     H16Y     HAL3     0.900000E-01   1.00800           0   0.00000     -0.301140E-02
     18313 MEMB     147      PMPE     H16Z     HAL3     0.900000E-01   1.00800           0   0.00000     -0.301140E-02
     18314 MEMB     148      PMPE     N        NH3L    -0.300000       14.0070           0   0.00000     -0.301140E-02
     18315 MEMB     148      PMPE     HN1      HCL      0.330000       1.00800           0   0.00000     -0.301140E-02
     18316 MEMB     148      PMPE     HN2      HCL      0.330000       1.00800           0   0.00000     -0.301140E-02
     18317 MEMB     148      PMPE     HN3      HCL      0.330000       1.00800           0   0.00000     -0.301140E-02
     18318 MEMB     148      PMPE     C12      CTL2     0.130000       12.0110           0   0.00000     -0.301140E-02
     18319 MEMB     148      PMPE     H12A     HAL2     0.900000E-01   1.00800           0   0.00000     -0.301140E-02
     18320 MEMB     148      PMPE     H12B     HAL2     0.900000E-01   1.00800           0   0.00000     -0.301140E-02
     18321 MEMB     148      PMPE     C11      CTL2    -0.800000E-01   12.0110           0   0.00000     -0.301140E-02
     18322 MEMB     148      PMPE     H11A     HAL2     0.900000E-01   1.00800           0   0.00000     -0.301140E-02
     18323 MEMB     148      PMPE     H11B     HAL2     0.900000E-01   1.00800           0   0.00000     -0.301140E-02
     18324 MEMB     148      PMPE     P        PL        1.50000       30.9740           0   0.00000     -0.301140E-02
     18325 MEMB     148      PMPE     O13      O2L     -0.780000       15.9994           0   0.00000     -0.301140E-02
     18326 MEMB     148      PMPE     O14      O2L     -0.780000       15.9994           0   0.00000     -0.301140E-02
     18327 MEMB     148      PMPE     O11      OSLP    -0.570000       15.9994           0   0.00000     -0.301140E-02
     18328 MEMB     148      PMPE     O12      OSLP    -0.570000       15.9994           0   0.00000     -0.301140E-02
     18329 MEMB     148      PMPE     C1       CTL2    -0.800000E-01   12.0110           0   0.00000     -0.301140E-02
     18330 MEMB     148      PMPE     HA       HAL2     0.900000E-01   1.00800           0   0.00000     -0.301140E-02
     18331 MEMB     148      PMPE     HB       HAL2     0.900000E-01   1.00800           0   0.00000     -0.301140E-02
     18332 MEMB     148      PMPE     C2       CTL1     0.170000       12.0110           0   0.00000     -0.301140E-02
     18333 MEMB     148      PMPE     HS       HAL1     0.900000E-01   1.00800           0   0.00000     -0.301140E-02
     18334 MEMB     148      PMPE     O21      OSL     -0.490000       15.9994           0   0.00000     -0.301140E-02
     18335 MEMB     148      PMPE     C21      CL       0.900000       12.0110           0   0.00000     -0.301140E-02
     18336 MEMB     148      PMPE     O22      OBL     -0.630000       15.9994           0   0.00000     -0.301140E-02
     18337 MEMB     148      PMPE     C22      CTL2    -0.220000       12.0110           0   0.00000     -0.301140E-02
     18338 MEMB     148      PMPE     H2R      HAL2     0.900000E-01   1.00800           0   0.00000     -0.301140E-02
     18339 MEMB     148      PMPE     H2S      HAL2     0.900000E-01   1.00800           0   0.00000     -0.301140E-02
     18340 MEMB     148      PMPE     C3       CTL2     0.800000E-01   12.0110           0   0.00000     -0.301140E-02
     18341 MEMB     148      PMPE     HX       HAL2     0.900000E-01   1.00800           0   0.00000     -0.301140E-02
     18342 MEMB     148      PMPE     HY       HAL2     0.900000E-01   1.00800           0   0.00000     -0.301140E-02
     18343 MEMB     148      PMPE     O31      OSL     -0.490000       15.9994           0   0.00000     -0.301140E-02
     18344 MEMB     148      PMPE     C31      CL       0.900000       12.0110           0   0.00000     -0.301140E-02
     18345 MEMB     148      PMPE     O32      OBL     -0.630000       15.9994           0   0.00000     -0.301140E-02
     18346 MEMB     148      PMPE     C32      CTL2    -0.220000       12.0110           0   0.00000     -0.301140E-02
     18347 MEMB     148      PMPE     H2X      HAL2     0.900000E-01   1.00800           0   0.00000     -0.301140E-02
     18348 MEMB     148      PMPE     H2Y      HAL2     0.900000E-01   1.00800           0   0.00000     -0.301140E-02
     18349 MEMB     148      PMPE     C23      CTL2    -0.180000       12.0110           0   0.00000     -0.301140E-02
     18350 MEMB     148      PMPE     H3R      HAL2     0.900000E-01   1.00800           0   0.00000     -0.301140E-02
     18351 MEMB     148      PMPE     H3S      HAL2     0.900000E-01   1.00800           0   0.00000     -0.301140E-02
     18352 MEMB     148      PMPE     C24      CTL2    -0.180000       12.0110           0   0.00000     -0.301140E-02
     18353 MEMB     148      PMPE     H4R      HAL2     0.900000E-01   1.00800           0   0.00000     -0.301140E-02
     18354 MEMB     148      PMPE     H4S      HAL2     0.900000E-01   1.00800           0   0.00000     -0.301140E-02
     18355 MEMB     148      PMPE     C25      CTL2    -0.180000       12.0110           0   0.00000     -0.301140E-02
     18356 MEMB     148      PMPE     H5R      HAL2     0.900000E-01   1.00800           0   0.00000     -0.301140E-02
     18357 MEMB     148      PMPE     H5S      HAL2     0.900000E-01   1.00800           0   0.00000     -0.301140E-02
     18358 MEMB     148      PMPE     C26      CTL2    -0.180000       12.0110           0   0.00000     -0.301140E-02
     18359 MEMB     148      PMPE     H6R      HAL2     0.900000E-01   1.00800           0   0.00000     -0.301140E-02
     18360 MEMB     148      PMPE     H6S      HAL2     0.900000E-01   1.00800           0   0.00000     -0.301140E-02
     18361 MEMB     148      PMPE     C27      CTL2    -0.180000       12.0110           0   0.00000     -0.301140E-02
     18362 MEMB     148      PMPE     H7R      HAL2     0.900000E-01   1.00800           0   0.00000     -0.301140E-02
     18363 MEMB     148      PMPE     H7S      HAL2     0.900000E-01   1.00800           0   0.00000     -0.301140E-02
     18364 MEMB     148      PMPE     C28      CTL2    -0.180000       12.0110           0   0.00000     -0.301140E-02
     18365 MEMB     148      PMPE     H8R      HAL2     0.900000E-01   1.00800           0   0.00000     -0.301140E-02
     18366 MEMB     148      PMPE     H8S      HAL2     0.900000E-01   1.00800           0   0.00000     -0.301140E-02
     18367 MEMB     148      PMPE     C29      CG3RC1  -0.900000E-01   12.0110           0   0.00000     -0.301140E-02
     18368 MEMB     148      PMPE     H9R      HGA1     0.900000E-01   1.00800           0   0.00000     -0.301140E-02
     18369 MEMB     148      PMPE     C217     CG3C31  -0.180000       12.0110           0   0.00000     -0.301140E-02
     18370 MEMB     148      PMPE     H17R     HGA2     0.900000E-01   1.00800           0   0.00000     -0.301140E-02
     18371 MEMB     148      PMPE     H17S     HGA2     0.900000E-01   1.00800           0   0.00000     -0.301140E-02
     18372 MEMB     148      PMPE     C210     CG3RC1  -0.900000E-01   12.0110           0   0.00000     -0.301140E-02
     18373 MEMB     148      PMPE     H10R     HGA1     0.900000E-01   1.00800           0   0.00000     -0.301140E-02
     18374 MEMB     148      PMPE     C211     CTL2    -0.180000       12.0110           0   0.00000     -0.301140E-02
     18375 MEMB     148      PMPE     H11R     HAL2     0.900000E-01   1.00800           0   0.00000     -0.301140E-02
     18376 MEMB     148      PMPE     H11S     HAL2     0.900000E-01   1.00800           0   0.00000     -0.301140E-02
     18377 MEMB     148      PMPE     C212     CTL2    -0.180000       12.0110           0   0.00000     -0.301140E-02
     18378 MEMB     148      PMPE     H12R     HAL2     0.900000E-01   1.00800           0   0.00000     -0.301140E-02
     18379 MEMB     148      PMPE     H12S     HAL2     0.900000E-01   1.00800           0   0.00000     -0.301140E-02
     18380 MEMB     148      PMPE     C213     CTL2    -0.180000       12.0110           0   0.00000     -0.301140E-02
     18381 MEMB     148      PMPE     H13R     HAL2     0.900000E-01   1.00800           0   0.00000     -0.301140E-02
     18382 MEMB     148      PMPE     H13S     HAL2     0.900000E-01   1.00800           0   0.00000     -0.301140E-02
     18383 MEMB     148      PMPE     C214     CTL2    -0.180000       12.0110           0   0.00000     -0.301140E-02
     18384 MEMB     148      PMPE     H14R     HAL2     0.900000E-01   1.00800           0   0.00000     -0.301140E-02
     18385 MEMB     148      PMPE     H14S     HAL2     0.900000E-01   1.00800           0   0.00000     -0.301140E-02
     18386 MEMB     148      PMPE     C215     CTL2    -0.180000       12.0110           0   0.00000     -0.301140E-02
     18387 MEMB     148      PMPE     H15R     HAL2     0.900000E-01   1.00800           0   0.00000     -0.301140E-02
     18388 MEMB     148      PMPE     H15S     HAL2     0.900000E-01   1.00800           0   0.00000     -0.301140E-02
     18389 MEMB     148      PMPE     C216     CTL3    -0.270000       12.0110           0   0.00000     -0.301140E-02
     18390 MEMB     148      PMPE     H16R     HAL3     0.900000E-01   1.00800           0   0.00000     -0.301140E-02
     18391 MEMB     148      PMPE     H16S     HAL3     0.900000E-01   1.00800           0   0.00000     -0.301140E-02
     18392 MEMB     148      PMPE     H16T     HAL3     0.900000E-01   1.00800           0   0.00000     -0.301140E-02
     18393 MEMB     148      PMPE     C33      CTL2    -0.180000       12.0110           0   0.00000     -0.301140E-02
     18394 MEMB     148      PMPE     H3X      HAL2     0.900000E-01   1.00800           0   0.00000     -0.301140E-02
     18395 MEMB     148      PMPE     H3Y      HAL2     0.900000E-01   1.00800           0   0.00000     -0.301140E-02
     18396 MEMB     148      PMPE     C34      CTL2    -0.180000       12.0110           0   0.00000     -0.301140E-02
     18397 MEMB     148      PMPE     H4X      HAL2     0.900000E-01   1.00800           0   0.00000     -0.301140E-02
     18398 MEMB     148      PMPE     H4Y      HAL2     0.900000E-01   1.00800           0   0.00000     -0.301140E-02
     18399 MEMB     148      PMPE     C35      CTL2    -0.180000       12.0110           0   0.00000     -0.301140E-02
     18400 MEMB     148      PMPE     H5X      HAL2     0.900000E-01   1.00800           0   0.00000     -0.301140E-02
     18401 MEMB     148      PMPE     H5Y      HAL2     0.900000E-01   1.00800           0   0.00000     -0.301140E-02
     18402 MEMB     148      PMPE     C36      CTL2    -0.180000       12.0110           0   0.00000     -0.301140E-02
     18403 MEMB     148      PMPE     H6X      HAL2     0.900000E-01   1.00800           0   0.00000     -0.301140E-02
     18404 MEMB     148      PMPE     H6Y      HAL2     0.900000E-01   1.00800           0   0.00000     -0.301140E-02
     18405 MEMB     148      PMPE     C37      CTL2    -0.180000       12.0110           0   0.00000     -0.301140E-02
     18406 MEMB     148      PMPE     H7X      HAL2     0.900000E-01   1.00800           0   0.00000     -0.301140E-02
     18407 MEMB     148      PMPE     H7Y      HAL2     0.900000E-01   1.00800           0   0.00000     -0.301140E-02
     18408 MEMB     148      PMPE     C38      CTL2    -0.180000       12.0110           0   0.00000     -0.301140E-02
     18409 MEMB     148      PMPE     H8X      HAL2     0.900000E-01   1.00800           0   0.00000     -0.301140E-02
     18410 MEMB     148      PMPE     H8Y      HAL2     0.900000E-01   1.00800           0   0.00000     -0.301140E-02
     18411 MEMB     148      PMPE     C39      CTL2    -0.180000       12.0110           0   0.00000     -0.301140E-02
     18412 MEMB     148      PMPE     H9X      HAL2     0.900000E-01   1.00800           0   0.00000     -0.301140E-02
     18413 MEMB     148      PMPE     H9Y      HAL2     0.900000E-01   1.00800           0   0.00000     -0.301140E-02
     18414 MEMB     148      PMPE     C310     CTL2    -0.180000       12.0110           0   0.00000     -0.301140E-02
     18415 MEMB     148      PMPE     H10X     HAL2     0.900000E-01   1.00800           0   0.00000     -0.301140E-02
     18416 MEMB     148      PMPE     H10Y     HAL2     0.900000E-01   1.00800           0   0.00000     -0.301140E-02
     18417 MEMB     148      PMPE     C311     CTL2    -0.180000       12.0110           0   0.00000     -0.301140E-02
     18418 MEMB     148      PMPE     H11X     HAL2     0.900000E-01   1.00800           0   0.00000     -0.301140E-02
     18419 MEMB     148      PMPE     H11Y     HAL2     0.900000E-01   1.00800           0   0.00000     -0.301140E-02
     18420 MEMB     148      PMPE     C312     CTL2    -0.180000       12.0110           0   0.00000     -0.301140E-02
     18421 MEMB     148      PMPE     H12X     HAL2     0.900000E-01   1.00800           0   0.00000     -0.301140E-02
     18422 MEMB     148      PMPE     H12Y     HAL2     0.900000E-01   1.00800           0   0.00000     -0.301140E-02
     18423 MEMB     148      PMPE     C313     CTL2    -0.180000       12.0110           0   0.00000     -0.301140E-02
     18424 MEMB     148      PMPE     H13X     HAL2     0.900000E-01   1.00800           0   0.00000     -0.301140E-02
     18425 MEMB     148      PMPE     H13Y     HAL2     0.900000E-01   1.00800           0   0.00000     -0.301140E-02
     18426 MEMB     148      PMPE     C314     CTL2    -0.180000       12.0110           0   0.00000     -0.301140E-02
     18427 MEMB     148      PMPE     H14X     HAL2     0.900000E-01   1.00800           0   0.00000     -0.301140E-02
     18428 MEMB     148      PMPE     H14Y     HAL2     0.900000E-01   1.00800           0   0.00000     -0.301140E-02
     18429 MEMB     148      PMPE     C315     CTL2    -0.180000       12.0110           0   0.00000     -0.301140E-02
     18430 MEMB     148      PMPE     H15X     HAL2     0.900000E-01   1.00800           0   0.00000     -0.301140E-02
     18431 MEMB     148      PMPE     H15Y     HAL2     0.900000E-01   1.00800           0   0.00000     -0.301140E-02
     18432 MEMB     148      PMPE     C316     CTL3    -0.270000       12.0110           0   0.00000     -0.301140E-02
     18433 MEMB     148      PMPE     H16X     HAL3     0.900000E-01   1.00800           0   0.00000     -0.301140E-02
     18434 MEMB     148      PMPE     H16Y     HAL3     0.900000E-01   1.00800           0   0.00000     -0.301140E-02
     18435 MEMB     148      PMPE     H16Z     HAL3     0.900000E-01   1.00800           0   0.00000     -0.301140E-02
     18436 MEMB     149      PYPG     C13      CTL2     0.500000E-01   12.0110           0   0.00000     -0.301140E-02
     18437 MEMB     149      PYPG     H13A     HAL2     0.900000E-01   1.00800           0   0.00000     -0.301140E-02
     18438 MEMB     149      PYPG     H13B     HAL2     0.900000E-01   1.00800           0   0.00000     -0.301140E-02
     18439 MEMB     149      PYPG     OC3      OHL     -0.660000       15.9994           0   0.00000     -0.301140E-02
     18440 MEMB     149      PYPG     HO3      HOL      0.430000       1.00800           0   0.00000     -0.301140E-02
     18441 MEMB     149      PYPG     C12      CTL1     0.140000       12.0110           0   0.00000     -0.301140E-02
     18442 MEMB     149      PYPG     H12A     HAL1     0.900000E-01   1.00800           0   0.00000     -0.301140E-02
     18443 MEMB     149      PYPG     OC2      OHL     -0.660000       15.9994           0   0.00000     -0.301140E-02
     18444 MEMB     149      PYPG     HO2      HOL      0.430000       1.00800           0   0.00000     -0.301140E-02
     18445 MEMB     149      PYPG     C11      CTL2    -0.800000E-01   12.0110           0   0.00000     -0.301140E-02
     18446 MEMB     149      PYPG     H11A     HAL2     0.900000E-01   1.00800           0   0.00000     -0.301140E-02
     18447 MEMB     149      PYPG     H11B     HAL2     0.900000E-01   1.00800           0   0.00000     -0.301140E-02
     18448 MEMB     149      PYPG     P        PL        1.50000       30.9740           0   0.00000     -0.301140E-02
     18449 MEMB     149      PYPG     O13      O2L     -0.780000       15.9994           0   0.00000     -0.301140E-02
     18450 MEMB     149      PYPG     O14      O2L     -0.780000       15.9994           0   0.00000     -0.301140E-02
     18451 MEMB     149      PYPG     O11      OSLP    -0.570000       15.9994           0   0.00000     -0.301140E-02
     18452 MEMB     149      PYPG     O12      OSLP    -0.570000       15.9994           0   0.00000     -0.301140E-02
     18453 MEMB     149      PYPG     C1       CTL2    -0.800000E-01   12.0110           0   0.00000     -0.301140E-02
     18454 MEMB     149      PYPG     HA       HAL2     0.900000E-01   1.00800           0   0.00000     -0.301140E-02
     18455 MEMB     149      PYPG     HB       HAL2     0.900000E-01   1.00800           0   0.00000     -0.301140E-02
     18456 MEMB     149      PYPG     C2       CTL1     0.170000       12.0110           0   0.00000     -0.301140E-02
     18457 MEMB     149      PYPG     HS       HAL1     0.900000E-01   1.00800           0   0.00000     -0.301140E-02
     18458 MEMB     149      PYPG     O21      OSL     -0.490000       15.9994           0   0.00000     -0.301140E-02
     18459 MEMB     149      PYPG     C21      CL       0.900000       12.0110           0   0.00000     -0.301140E-02
     18460 MEMB     149      PYPG     O22      OBL     -0.630000       15.9994           0   0.00000     -0.301140E-02
     18461 MEMB     149      PYPG     C22      CTL2    -0.220000       12.0110           0   0.00000     -0.301140E-02
     18462 MEMB     149      PYPG     H2R      HAL2     0.900000E-01   1.00800           0   0.00000     -0.301140E-02
     18463 MEMB     149      PYPG     H2S      HAL2     0.900000E-01   1.00800           0   0.00000     -0.301140E-02
     18464 MEMB     149      PYPG     C3       CTL2     0.800000E-01   12.0110           0   0.00000     -0.301140E-02
     18465 MEMB     149      PYPG     HX       HAL2     0.900000E-01   1.00800           0   0.00000     -0.301140E-02
     18466 MEMB     149      PYPG     HY       HAL2     0.900000E-01   1.00800           0   0.00000     -0.301140E-02
     18467 MEMB     149      PYPG     O31      OSL     -0.490000       15.9994           0   0.00000     -0.301140E-02
     18468 MEMB     149      PYPG     C31      CL       0.900000       12.0110           0   0.00000     -0.301140E-02
     18469 MEMB     149      PYPG     O32      OBL     -0.630000       15.9994           0   0.00000     -0.301140E-02
     18470 MEMB     149      PYPG     C32      CTL2    -0.220000       12.0110           0   0.00000     -0.301140E-02
     18471 MEMB     149      PYPG     H2X      HAL2     0.900000E-01   1.00800           0   0.00000     -0.301140E-02
     18472 MEMB     149      PYPG     H2Y      HAL2     0.900000E-01   1.00800           0   0.00000     -0.301140E-02
     18473 MEMB     149      PYPG     C23      CTL2    -0.180000       12.0110           0   0.00000     -0.301140E-02
     18474 MEMB     149      PYPG     H3R      HAL2     0.900000E-01   1.00800           0   0.00000     -0.301140E-02
     18475 MEMB     149      PYPG     H3S      HAL2     0.900000E-01   1.00800           0   0.00000     -0.301140E-02
     18476 MEMB     149      PYPG     C24      CTL2    -0.180000       12.0110           0   0.00000     -0.301140E-02
     18477 MEMB     149      PYPG     H4R      HAL2     0.900000E-01   1.00800           0   0.00000     -0.301140E-02
     18478 MEMB     149      PYPG     H4S      HAL2     0.900000E-01   1.00800           0   0.00000     -0.301140E-02
     18479 MEMB     149      PYPG     C25      CTL2    -0.180000       12.0110           0   0.00000     -0.301140E-02
     18480 MEMB     149      PYPG     H5R      HAL2     0.900000E-01   1.00800           0   0.00000     -0.301140E-02
     18481 MEMB     149      PYPG     H5S      HAL2     0.900000E-01   1.00800           0   0.00000     -0.301140E-02
     18482 MEMB     149      PYPG     C26      CTL2    -0.180000       12.0110           0   0.00000     -0.301140E-02
     18483 MEMB     149      PYPG     H6R      HAL2     0.900000E-01   1.00800           0   0.00000     -0.301140E-02
     18484 MEMB     149      PYPG     H6S      HAL2     0.900000E-01   1.00800           0   0.00000     -0.301140E-02
     18485 MEMB     149      PYPG     C27      CTL2    -0.180000       12.0110           0   0.00000     -0.301140E-02
     18486 MEMB     149      PYPG     H7R      HAL2     0.900000E-01   1.00800           0   0.00000     -0.301140E-02
     18487 MEMB     149      PYPG     H7S      HAL2     0.900000E-01   1.00800           0   0.00000     -0.301140E-02
     18488 MEMB     149      PYPG     C28      CTL2    -0.180000       12.0110           0   0.00000     -0.301140E-02
     18489 MEMB     149      PYPG     H8R      HAL2     0.900000E-01   1.00800           0   0.00000     -0.301140E-02
     18490 MEMB     149      PYPG     H8S      HAL2     0.900000E-01   1.00800           0   0.00000     -0.301140E-02
     18491 MEMB     149      PYPG     C29      CEL1    -0.150000       12.0110           0   0.00000     -0.301140E-02
     18492 MEMB     149      PYPG     H9R      HEL1     0.150000       1.00800           0   0.00000     -0.301140E-02
     18493 MEMB     149      PYPG     C210     CEL1    -0.150000       12.0110           0   0.00000     -0.301140E-02
     18494 MEMB     149      PYPG     H10R     HEL1     0.150000       1.00800           0   0.00000     -0.301140E-02
     18495 MEMB     149      PYPG     C211     CTL2    -0.180000       12.0110           0   0.00000     -0.301140E-02
     18496 MEMB     149      PYPG     H11R     HAL2     0.900000E-01   1.00800           0   0.00000     -0.301140E-02
     18497 MEMB     149      PYPG     H11S     HAL2     0.900000E-01   1.00800           0   0.00000     -0.301140E-02
     18498 MEMB     149      PYPG     C212     CTL2    -0.180000       12.0110           0   0.00000     -0.301140E-02
     18499 MEMB     149      PYPG     H12R     HAL2     0.900000E-01   1.00800           0   0.00000     -0.301140E-02
     18500 MEMB     149      PYPG     H12S     HAL2     0.900000E-01   1.00800           0   0.00000     -0.301140E-02
     18501 MEMB     149      PYPG     C213     CTL2    -0.180000       12.0110           0   0.00000     -0.301140E-02
     18502 MEMB     149      PYPG     H13R     HAL2     0.900000E-01   1.00800           0   0.00000     -0.301140E-02
     18503 MEMB     149      PYPG     H13S     HAL2     0.900000E-01   1.00800           0   0.00000     -0.301140E-02
     18504 MEMB     149      PYPG     C214     CTL2    -0.180000       12.0110           0   0.00000     -0.301140E-02
     18505 MEMB     149      PYPG     H14R     HAL2     0.900000E-01   1.00800           0   0.00000     -0.301140E-02
     18506 MEMB     149      PYPG     H14S     HAL2     0.900000E-01   1.00800           0   0.00000     -0.301140E-02
     18507 MEMB     149      PYPG     C215     CTL2    -0.180000       12.0110           0   0.00000     -0.301140E-02
     18508 MEMB     149      PYPG     H15R     HAL2     0.900000E-01   1.00800           0   0.00000     -0.301140E-02
     18509 MEMB     149      PYPG     H15S     HAL2     0.900000E-01   1.00800           0   0.00000     -0.301140E-02
     18510 MEMB     149      PYPG     C216     CTL3    -0.270000       12.0110           0   0.00000     -0.301140E-02
     18511 MEMB     149      PYPG     H16R     HAL3     0.900000E-01   1.00800           0   0.00000     -0.301140E-02
     18512 MEMB     149      PYPG     H16S     HAL3     0.900000E-01   1.00800           0   0.00000     -0.301140E-02
     18513 MEMB     149      PYPG     H16T     HAL3     0.900000E-01   1.00800           0   0.00000     -0.301140E-02
     18514 MEMB     149      PYPG     C33      CTL2    -0.180000       12.0110           0   0.00000     -0.301140E-02
     18515 MEMB     149      PYPG     H3X      HAL2     0.900000E-01   1.00800           0   0.00000     -0.301140E-02
     18516 MEMB     149      PYPG     H3Y      HAL2     0.900000E-01   1.00800           0   0.00000     -0.301140E-02
     18517 MEMB     149      PYPG     C34      CTL2    -0.180000       12.0110           0   0.00000     -0.301140E-02
     18518 MEMB     149      PYPG     H4X      HAL2     0.900000E-01   1.00800           0   0.00000     -0.301140E-02
     18519 MEMB     149      PYPG     H4Y      HAL2     0.900000E-01   1.00800           0   0.00000     -0.301140E-02
     18520 MEMB     149      PYPG     C35      CTL2    -0.180000       12.0110           0   0.00000     -0.301140E-02
     18521 MEMB     149      PYPG     H5X      HAL2     0.900000E-01   1.00800           0   0.00000     -0.301140E-02
     18522 MEMB     149      PYPG     H5Y      HAL2     0.900000E-01   1.00800           0   0.00000     -0.301140E-02
     18523 MEMB     149      PYPG     C36      CTL2    -0.180000       12.0110           0   0.00000     -0.301140E-02
     18524 MEMB     149      PYPG     H6X      HAL2     0.900000E-01   1.00800           0   0.00000     -0.301140E-02
     18525 MEMB     149      PYPG     H6Y      HAL2     0.900000E-01   1.00800           0   0.00000     -0.301140E-02
     18526 MEMB     149      PYPG     C37      CTL2    -0.180000       12.0110           0   0.00000     -0.301140E-02
     18527 MEMB     149      PYPG     H7X      HAL2     0.900000E-01   1.00800           0   0.00000     -0.301140E-02
     18528 MEMB     149      PYPG     H7Y      HAL2     0.900000E-01   1.00800           0   0.00000     -0.301140E-02
     18529 MEMB     149      PYPG     C38      CTL2    -0.180000       12.0110           0   0.00000     -0.301140E-02
     18530 MEMB     149      PYPG     H8X      HAL2     0.900000E-01   1.00800           0   0.00000     -0.301140E-02
     18531 MEMB     149      PYPG     H8Y      HAL2     0.900000E-01   1.00800           0   0.00000     -0.301140E-02
     18532 MEMB     149      PYPG     C39      CTL2    -0.180000       12.0110           0   0.00000     -0.301140E-02
     18533 MEMB     149      PYPG     H9X      HAL2     0.900000E-01   1.00800           0   0.00000     -0.301140E-02
     18534 MEMB     149      PYPG     H9Y      HAL2     0.900000E-01   1.00800           0   0.00000     -0.301140E-02
     18535 MEMB     149      PYPG     C310     CTL2    -0.180000       12.0110           0   0.00000     -0.301140E-02
     18536 MEMB     149      PYPG     H10X     HAL2     0.900000E-01   1.00800           0   0.00000     -0.301140E-02
     18537 MEMB     149      PYPG     H10Y     HAL2     0.900000E-01   1.00800           0   0.00000     -0.301140E-02
     18538 MEMB     149      PYPG     C311     CTL2    -0.180000       12.0110           0   0.00000     -0.301140E-02
     18539 MEMB     149      PYPG     H11X     HAL2     0.900000E-01   1.00800           0   0.00000     -0.301140E-02
     18540 MEMB     149      PYPG     H11Y     HAL2     0.900000E-01   1.00800           0   0.00000     -0.301140E-02
     18541 MEMB     149      PYPG     C312     CTL2    -0.180000       12.0110           0   0.00000     -0.301140E-02
     18542 MEMB     149      PYPG     H12X     HAL2     0.900000E-01   1.00800           0   0.00000     -0.301140E-02
     18543 MEMB     149      PYPG     H12Y     HAL2     0.900000E-01   1.00800           0   0.00000     -0.301140E-02
     18544 MEMB     149      PYPG     C313     CTL2    -0.180000       12.0110           0   0.00000     -0.301140E-02
     18545 MEMB     149      PYPG     H13X     HAL2     0.900000E-01   1.00800           0   0.00000     -0.301140E-02
     18546 MEMB     149      PYPG     H13Y     HAL2     0.900000E-01   1.00800           0   0.00000     -0.301140E-02
     18547 MEMB     149      PYPG     C314     CTL2    -0.180000       12.0110           0   0.00000     -0.301140E-02
     18548 MEMB     149      PYPG     H14X     HAL2     0.900000E-01   1.00800           0   0.00000     -0.301140E-02
     18549 MEMB     149      PYPG     H14Y     HAL2     0.900000E-01   1.00800           0   0.00000     -0.301140E-02
     18550 MEMB     149      PYPG     C315     CTL2    -0.180000       12.0110           0   0.00000     -0.301140E-02
     18551 MEMB     149      PYPG     H15X     HAL2     0.900000E-01   1.00800           0   0.00000     -0.301140E-02
     18552 MEMB     149      PYPG     H15Y     HAL2     0.900000E-01   1.00800           0   0.00000     -0.301140E-02
     18553 MEMB     149      PYPG     C316     CTL3    -0.270000       12.0110           0   0.00000     -0.301140E-02
     18554 MEMB     149      PYPG     H16X     HAL3     0.900000E-01   1.00800           0   0.00000     -0.301140E-02
     18555 MEMB     149      PYPG     H16Y     HAL3     0.900000E-01   1.00800           0   0.00000     -0.301140E-02
     18556 MEMB     149      PYPG     H16Z     HAL3     0.900000E-01   1.00800           0   0.00000     -0.301140E-02
     18557 MEMB     150      POPE     N        NH3L    -0.300000       14.0070           0   0.00000     -0.301140E-02
     18558 MEMB     150      POPE     HN1      HCL      0.330000       1.00800           0   0.00000     -0.301140E-02
     18559 MEMB     150      POPE     HN2      HCL      0.330000       1.00800           0   0.00000     -0.301140E-02
     18560 MEMB     150      POPE     HN3      HCL      0.330000       1.00800           0   0.00000     -0.301140E-02
     18561 MEMB     150      POPE     C12      CTL2     0.130000       12.0110           0   0.00000     -0.301140E-02
     18562 MEMB     150      POPE     H12A     HAL2     0.900000E-01   1.00800           0   0.00000     -0.301140E-02
     18563 MEMB     150      POPE     H12B     HAL2     0.900000E-01   1.00800           0   0.00000     -0.301140E-02
     18564 MEMB     150      POPE     C11      CTL2    -0.800000E-01   12.0110           0   0.00000     -0.301140E-02
     18565 MEMB     150      POPE     H11A     HAL2     0.900000E-01   1.00800           0   0.00000     -0.301140E-02
     18566 MEMB     150      POPE     H11B     HAL2     0.900000E-01   1.00800           0   0.00000     -0.301140E-02
     18567 MEMB     150      POPE     P        PL        1.50000       30.9740           0   0.00000     -0.301140E-02
     18568 MEMB     150      POPE     O13      O2L     -0.780000       15.9994           0   0.00000     -0.301140E-02
     18569 MEMB     150      POPE     O14      O2L     -0.780000       15.9994           0   0.00000     -0.301140E-02
     18570 MEMB     150      POPE     O11      OSLP    -0.570000       15.9994           0   0.00000     -0.301140E-02
     18571 MEMB     150      POPE     O12      OSLP    -0.570000       15.9994           0   0.00000     -0.301140E-02
     18572 MEMB     150      POPE     C1       CTL2    -0.800000E-01   12.0110           0   0.00000     -0.301140E-02
     18573 MEMB     150      POPE     HA       HAL2     0.900000E-01   1.00800           0   0.00000     -0.301140E-02
     18574 MEMB     150      POPE     HB       HAL2     0.900000E-01   1.00800           0   0.00000     -0.301140E-02
     18575 MEMB     150      POPE     C2       CTL1     0.170000       12.0110           0   0.00000     -0.301140E-02
     18576 MEMB     150      POPE     HS       HAL1     0.900000E-01   1.00800           0   0.00000     -0.301140E-02
     18577 MEMB     150      POPE     O21      OSL     -0.490000       15.9994           0   0.00000     -0.301140E-02
     18578 MEMB     150      POPE     C21      CL       0.900000       12.0110           0   0.00000     -0.301140E-02
     18579 MEMB     150      POPE     O22      OBL     -0.630000       15.9994           0   0.00000     -0.301140E-02
     18580 MEMB     150      POPE     C22      CTL2    -0.220000       12.0110           0   0.00000     -0.301140E-02
     18581 MEMB     150      POPE     H2R      HAL2     0.900000E-01   1.00800           0   0.00000     -0.301140E-02
     18582 MEMB     150      POPE     H2S      HAL2     0.900000E-01   1.00800           0   0.00000     -0.301140E-02
     18583 MEMB     150      POPE     C3       CTL2     0.800000E-01   12.0110           0   0.00000     -0.301140E-02
     18584 MEMB     150      POPE     HX       HAL2     0.900000E-01   1.00800           0   0.00000     -0.301140E-02
     18585 MEMB     150      POPE     HY       HAL2     0.900000E-01   1.00800           0   0.00000     -0.301140E-02
     18586 MEMB     150      POPE     O31      OSL     -0.490000       15.9994           0   0.00000     -0.301140E-02
     18587 MEMB     150      POPE     C31      CL       0.900000       12.0110           0   0.00000     -0.301140E-02
     18588 MEMB     150      POPE     O32      OBL     -0.630000       15.9994           0   0.00000     -0.301140E-02
     18589 MEMB     150      POPE     C32      CTL2    -0.220000       12.0110           0   0.00000     -0.301140E-02
     18590 MEMB     150      POPE     H2X      HAL2     0.900000E-01   1.00800           0   0.00000     -0.301140E-02
     18591 MEMB     150      POPE     H2Y      HAL2     0.900000E-01   1.00800           0   0.00000     -0.301140E-02
     18592 MEMB     150      POPE     C23      CTL2    -0.180000       12.0110           0   0.00000     -0.301140E-02
     18593 MEMB     150      POPE     H3R      HAL2     0.900000E-01   1.00800           0   0.00000     -0.301140E-02
     18594 MEMB     150      POPE     H3S      HAL2     0.900000E-01   1.00800           0   0.00000     -0.301140E-02
     18595 MEMB     150      POPE     C24      CTL2    -0.180000       12.0110           0   0.00000     -0.301140E-02
     18596 MEMB     150      POPE     H4R      HAL2     0.900000E-01   1.00800           0   0.00000     -0.301140E-02
     18597 MEMB     150      POPE     H4S      HAL2     0.900000E-01   1.00800           0   0.00000     -0.301140E-02
     18598 MEMB     150      POPE     C25      CTL2    -0.180000       12.0110           0   0.00000     -0.301140E-02
     18599 MEMB     150      POPE     H5R      HAL2     0.900000E-01   1.00800           0   0.00000     -0.301140E-02
     18600 MEMB     150      POPE     H5S      HAL2     0.900000E-01   1.00800           0   0.00000     -0.301140E-02
     18601 MEMB     150      POPE     C26      CTL2    -0.180000       12.0110           0   0.00000     -0.301140E-02
     18602 MEMB     150      POPE     H6R      HAL2     0.900000E-01   1.00800           0   0.00000     -0.301140E-02
     18603 MEMB     150      POPE     H6S      HAL2     0.900000E-01   1.00800           0   0.00000     -0.301140E-02
     18604 MEMB     150      POPE     C27      CTL2    -0.180000       12.0110           0   0.00000     -0.301140E-02
     18605 MEMB     150      POPE     H7R      HAL2     0.900000E-01   1.00800           0   0.00000     -0.301140E-02
     18606 MEMB     150      POPE     H7S      HAL2     0.900000E-01   1.00800           0   0.00000     -0.301140E-02
     18607 MEMB     150      POPE     C28      CTL2    -0.180000       12.0110           0   0.00000     -0.301140E-02
     18608 MEMB     150      POPE     H8R      HAL2     0.900000E-01   1.00800           0   0.00000     -0.301140E-02
     18609 MEMB     150      POPE     H8S      HAL2     0.900000E-01   1.00800           0   0.00000     -0.301140E-02
     18610 MEMB     150      POPE     C29      CEL1    -0.150000       12.0110           0   0.00000     -0.301140E-02
     18611 MEMB     150      POPE     H91      HEL1     0.150000       1.00800           0   0.00000     -0.301140E-02
     18612 MEMB     150      POPE     C210     CEL1    -0.150000       12.0110           0   0.00000     -0.301140E-02
     18613 MEMB     150      POPE     H101     HEL1     0.150000       1.00800           0   0.00000     -0.301140E-02
     18614 MEMB     150      POPE     C211     CTL2    -0.180000       12.0110           0   0.00000     -0.301140E-02
     18615 MEMB     150      POPE     H11R     HAL2     0.900000E-01   1.00800           0   0.00000     -0.301140E-02
     18616 MEMB     150      POPE     H11S     HAL2     0.900000E-01   1.00800           0   0.00000     -0.301140E-02
     18617 MEMB     150      POPE     C212     CTL2    -0.180000       12.0110           0   0.00000     -0.301140E-02
     18618 MEMB     150      POPE     H12R     HAL2     0.900000E-01   1.00800           0   0.00000     -0.301140E-02
     18619 MEMB     150      POPE     H12S     HAL2     0.900000E-01   1.00800           0   0.00000     -0.301140E-02
     18620 MEMB     150      POPE     C213     CTL2    -0.180000       12.0110           0   0.00000     -0.301140E-02
     18621 MEMB     150      POPE     H13R     HAL2     0.900000E-01   1.00800           0   0.00000     -0.301140E-02
     18622 MEMB     150      POPE     H13S     HAL2     0.900000E-01   1.00800           0   0.00000     -0.301140E-02
     18623 MEMB     150      POPE     C214     CTL2    -0.180000       12.0110           0   0.00000     -0.301140E-02
     18624 MEMB     150      POPE     H14R     HAL2     0.900000E-01   1.00800           0   0.00000     -0.301140E-02
     18625 MEMB     150      POPE     H14S     HAL2     0.900000E-01   1.00800           0   0.00000     -0.301140E-02
     18626 MEMB     150      POPE     C215     CTL2    -0.180000       12.0110           0   0.00000     -0.301140E-02
     18627 MEMB     150      POPE     H15R     HAL2     0.900000E-01   1.00800           0   0.00000     -0.301140E-02
     18628 MEMB     150      POPE     H15S     HAL2     0.900000E-01   1.00800           0   0.00000     -0.301140E-02
     18629 MEMB     150      POPE     C216     CTL2    -0.180000       12.0110           0   0.00000     -0.301140E-02
     18630 MEMB     150      POPE     H16R     HAL2     0.900000E-01   1.00800           0   0.00000     -0.301140E-02
     18631 MEMB     150      POPE     H16S     HAL2     0.900000E-01   1.00800           0   0.00000     -0.301140E-02
     18632 MEMB     150      POPE     C217     CTL2    -0.180000       12.0110           0   0.00000     -0.301140E-02
     18633 MEMB     150      POPE     H17R     HAL2     0.900000E-01   1.00800           0   0.00000     -0.301140E-02
     18634 MEMB     150      POPE     H17S     HAL2     0.900000E-01   1.00800           0   0.00000     -0.301140E-02
     18635 MEMB     150      POPE     C218     CTL3    -0.270000       12.0110           0   0.00000     -0.301140E-02
     18636 MEMB     150      POPE     H18R     HAL3     0.900000E-01   1.00800           0   0.00000     -0.301140E-02
     18637 MEMB     150      POPE     H18S     HAL3     0.900000E-01   1.00800           0   0.00000     -0.301140E-02
     18638 MEMB     150      POPE     H18T     HAL3     0.900000E-01   1.00800           0   0.00000     -0.301140E-02
     18639 MEMB     150      POPE     C33      CTL2    -0.180000       12.0110           0   0.00000     -0.301140E-02
     18640 MEMB     150      POPE     H3X      HAL2     0.900000E-01   1.00800           0   0.00000     -0.301140E-02
     18641 MEMB     150      POPE     H3Y      HAL2     0.900000E-01   1.00800           0   0.00000     -0.301140E-02
     18642 MEMB     150      POPE     C34      CTL2    -0.180000       12.0110           0   0.00000     -0.301140E-02
     18643 MEMB     150      POPE     H4X      HAL2     0.900000E-01   1.00800           0   0.00000     -0.301140E-02
     18644 MEMB     150      POPE     H4Y      HAL2     0.900000E-01   1.00800           0   0.00000     -0.301140E-02
     18645 MEMB     150      POPE     C35      CTL2    -0.180000       12.0110           0   0.00000     -0.301140E-02
     18646 MEMB     150      POPE     H5X      HAL2     0.900000E-01   1.00800           0   0.00000     -0.301140E-02
     18647 MEMB     150      POPE     H5Y      HAL2     0.900000E-01   1.00800           0   0.00000     -0.301140E-02
     18648 MEMB     150      POPE     C36      CTL2    -0.180000       12.0110           0   0.00000     -0.301140E-02
     18649 MEMB     150      POPE     H6X      HAL2     0.900000E-01   1.00800           0   0.00000     -0.301140E-02
     18650 MEMB     150      POPE     H6Y      HAL2     0.900000E-01   1.00800           0   0.00000     -0.301140E-02
     18651 MEMB     150      POPE     C37      CTL2    -0.180000       12.0110           0   0.00000     -0.301140E-02
     18652 MEMB     150      POPE     H7X      HAL2     0.900000E-01   1.00800           0   0.00000     -0.301140E-02
     18653 MEMB     150      POPE     H7Y      HAL2     0.900000E-01   1.00800           0   0.00000     -0.301140E-02
     18654 MEMB     150      POPE     C38      CTL2    -0.180000       12.0110           0   0.00000     -0.301140E-02
     18655 MEMB     150      POPE     H8X      HAL2     0.900000E-01   1.00800           0   0.00000     -0.301140E-02
     18656 MEMB     150      POPE     H8Y      HAL2     0.900000E-01   1.00800           0   0.00000     -0.301140E-02
     18657 MEMB     150      POPE     C39      CTL2    -0.180000       12.0110           0   0.00000     -0.301140E-02
     18658 MEMB     150      POPE     H9X      HAL2     0.900000E-01   1.00800           0   0.00000     -0.301140E-02
     18659 MEMB     150      POPE     H9Y      HAL2     0.900000E-01   1.00800           0   0.00000     -0.301140E-02
     18660 MEMB     150      POPE     C310     CTL2    -0.180000       12.0110           0   0.00000     -0.301140E-02
     18661 MEMB     150      POPE     H10X     HAL2     0.900000E-01   1.00800           0   0.00000     -0.301140E-02
     18662 MEMB     150      POPE     H10Y     HAL2     0.900000E-01   1.00800           0   0.00000     -0.301140E-02
     18663 MEMB     150      POPE     C311     CTL2    -0.180000       12.0110           0   0.00000     -0.301140E-02
     18664 MEMB     150      POPE     H11X     HAL2     0.900000E-01   1.00800           0   0.00000     -0.301140E-02
     18665 MEMB     150      POPE     H11Y     HAL2     0.900000E-01   1.00800           0   0.00000     -0.301140E-02
     18666 MEMB     150      POPE     C312     CTL2    -0.180000       12.0110           0   0.00000     -0.301140E-02
     18667 MEMB     150      POPE     H12X     HAL2     0.900000E-01   1.00800           0   0.00000     -0.301140E-02
     18668 MEMB     150      POPE     H12Y     HAL2     0.900000E-01   1.00800           0   0.00000     -0.301140E-02
     18669 MEMB     150      POPE     C313     CTL2    -0.180000       12.0110           0   0.00000     -0.301140E-02
     18670 MEMB     150      POPE     H13X     HAL2     0.900000E-01   1.00800           0   0.00000     -0.301140E-02
     18671 MEMB     150      POPE     H13Y     HAL2     0.900000E-01   1.00800           0   0.00000     -0.301140E-02
     18672 MEMB     150      POPE     C314     CTL2    -0.180000       12.0110           0   0.00000     -0.301140E-02
     18673 MEMB     150      POPE     H14X     HAL2     0.900000E-01   1.00800           0   0.00000     -0.301140E-02
     18674 MEMB     150      POPE     H14Y     HAL2     0.900000E-01   1.00800           0   0.00000     -0.301140E-02
     18675 MEMB     150      POPE     C315     CTL2    -0.180000       12.0110           0   0.00000     -0.301140E-02
     18676 MEMB     150      POPE     H15X     HAL2     0.900000E-01   1.00800           0   0.00000     -0.301140E-02
     18677 MEMB     150      POPE     H15Y     HAL2     0.900000E-01   1.00800           0   0.00000     -0.301140E-02
     18678 MEMB     150      POPE     C316     CTL3    -0.270000       12.0110           0   0.00000     -0.301140E-02
     18679 MEMB     150      POPE     H16X     HAL3     0.900000E-01   1.00800           0   0.00000     -0.301140E-02
     18680 MEMB     150      POPE     H16Y     HAL3     0.900000E-01   1.00800           0   0.00000     -0.301140E-02
     18681 MEMB     150      POPE     H16Z     HAL3     0.900000E-01   1.00800           0   0.00000     -0.301140E-02
     18682 MEMB     151      PMPE     N        NH3L    -0.300000       14.0070           0   0.00000     -0.301140E-02
     18683 MEMB     151      PMPE     HN1      HCL      0.330000       1.00800           0   0.00000     -0.301140E-02
     18684 MEMB     151      PMPE     HN2      HCL      0.330000       1.00800           0   0.00000     -0.301140E-02
     18685 MEMB     151      PMPE     HN3      HCL      0.330000       1.00800           0   0.00000     -0.301140E-02
     18686 MEMB     151      PMPE     C12      CTL2     0.130000       12.0110           0   0.00000     -0.301140E-02
     18687 MEMB     151      PMPE     H12A     HAL2     0.900000E-01   1.00800           0   0.00000     -0.301140E-02
     18688 MEMB     151      PMPE     H12B     HAL2     0.900000E-01   1.00800           0   0.00000     -0.301140E-02
     18689 MEMB     151      PMPE     C11      CTL2    -0.800000E-01   12.0110           0   0.00000     -0.301140E-02
     18690 MEMB     151      PMPE     H11A     HAL2     0.900000E-01   1.00800           0   0.00000     -0.301140E-02
     18691 MEMB     151      PMPE     H11B     HAL2     0.900000E-01   1.00800           0   0.00000     -0.301140E-02
     18692 MEMB     151      PMPE     P        PL        1.50000       30.9740           0   0.00000     -0.301140E-02
     18693 MEMB     151      PMPE     O13      O2L     -0.780000       15.9994           0   0.00000     -0.301140E-02
     18694 MEMB     151      PMPE     O14      O2L     -0.780000       15.9994           0   0.00000     -0.301140E-02
     18695 MEMB     151      PMPE     O11      OSLP    -0.570000       15.9994           0   0.00000     -0.301140E-02
     18696 MEMB     151      PMPE     O12      OSLP    -0.570000       15.9994           0   0.00000     -0.301140E-02
     18697 MEMB     151      PMPE     C1       CTL2    -0.800000E-01   12.0110           0   0.00000     -0.301140E-02
     18698 MEMB     151      PMPE     HA       HAL2     0.900000E-01   1.00800           0   0.00000     -0.301140E-02
     18699 MEMB     151      PMPE     HB       HAL2     0.900000E-01   1.00800           0   0.00000     -0.301140E-02
     18700 MEMB     151      PMPE     C2       CTL1     0.170000       12.0110           0   0.00000     -0.301140E-02
     18701 MEMB     151      PMPE     HS       HAL1     0.900000E-01   1.00800           0   0.00000     -0.301140E-02
     18702 MEMB     151      PMPE     O21      OSL     -0.490000       15.9994           0   0.00000     -0.301140E-02
     18703 MEMB     151      PMPE     C21      CL       0.900000       12.0110           0   0.00000     -0.301140E-02
     18704 MEMB     151      PMPE     O22      OBL     -0.630000       15.9994           0   0.00000     -0.301140E-02
     18705 MEMB     151      PMPE     C22      CTL2    -0.220000       12.0110           0   0.00000     -0.301140E-02
     18706 MEMB     151      PMPE     H2R      HAL2     0.900000E-01   1.00800           0   0.00000     -0.301140E-02
     18707 MEMB     151      PMPE     H2S      HAL2     0.900000E-01   1.00800           0   0.00000     -0.301140E-02
     18708 MEMB     151      PMPE     C3       CTL2     0.800000E-01   12.0110           0   0.00000     -0.301140E-02
     18709 MEMB     151      PMPE     HX       HAL2     0.900000E-01   1.00800           0   0.00000     -0.301140E-02
     18710 MEMB     151      PMPE     HY       HAL2     0.900000E-01   1.00800           0   0.00000     -0.301140E-02
     18711 MEMB     151      PMPE     O31      OSL     -0.490000       15.9994           0   0.00000     -0.301140E-02
     18712 MEMB     151      PMPE     C31      CL       0.900000       12.0110           0   0.00000     -0.301140E-02
     18713 MEMB     151      PMPE     O32      OBL     -0.630000       15.9994           0   0.00000     -0.301140E-02
     18714 MEMB     151      PMPE     C32      CTL2    -0.220000       12.0110           0   0.00000     -0.301140E-02
     18715 MEMB     151      PMPE     H2X      HAL2     0.900000E-01   1.00800           0   0.00000     -0.301140E-02
     18716 MEMB     151      PMPE     H2Y      HAL2     0.900000E-01   1.00800           0   0.00000     -0.301140E-02
     18717 MEMB     151      PMPE     C23      CTL2    -0.180000       12.0110           0   0.00000     -0.301140E-02
     18718 MEMB     151      PMPE     H3R      HAL2     0.900000E-01   1.00800           0   0.00000     -0.301140E-02
     18719 MEMB     151      PMPE     H3S      HAL2     0.900000E-01   1.00800           0   0.00000     -0.301140E-02
     18720 MEMB     151      PMPE     C24      CTL2    -0.180000       12.0110           0   0.00000     -0.301140E-02
     18721 MEMB     151      PMPE     H4R      HAL2     0.900000E-01   1.00800           0   0.00000     -0.301140E-02
     18722 MEMB     151      PMPE     H4S      HAL2     0.900000E-01   1.00800           0   0.00000     -0.301140E-02
     18723 MEMB     151      PMPE     C25      CTL2    -0.180000       12.0110           0   0.00000     -0.301140E-02
     18724 MEMB     151      PMPE     H5R      HAL2     0.900000E-01   1.00800           0   0.00000     -0.301140E-02
     18725 MEMB     151      PMPE     H5S      HAL2     0.900000E-01   1.00800           0   0.00000     -0.301140E-02
     18726 MEMB     151      PMPE     C26      CTL2    -0.180000       12.0110           0   0.00000     -0.301140E-02
     18727 MEMB     151      PMPE     H6R      HAL2     0.900000E-01   1.00800           0   0.00000     -0.301140E-02
     18728 MEMB     151      PMPE     H6S      HAL2     0.900000E-01   1.00800           0   0.00000     -0.301140E-02
     18729 MEMB     151      PMPE     C27      CTL2    -0.180000       12.0110           0   0.00000     -0.301140E-02
     18730 MEMB     151      PMPE     H7R      HAL2     0.900000E-01   1.00800           0   0.00000     -0.301140E-02
     18731 MEMB     151      PMPE     H7S      HAL2     0.900000E-01   1.00800           0   0.00000     -0.301140E-02
     18732 MEMB     151      PMPE     C28      CTL2    -0.180000       12.0110           0   0.00000     -0.301140E-02
     18733 MEMB     151      PMPE     H8R      HAL2     0.900000E-01   1.00800           0   0.00000     -0.301140E-02
     18734 MEMB     151      PMPE     H8S      HAL2     0.900000E-01   1.00800           0   0.00000     -0.301140E-02
     18735 MEMB     151      PMPE     C29      CG3RC1  -0.900000E-01   12.0110           0   0.00000     -0.301140E-02
     18736 MEMB     151      PMPE     H9R      HGA1     0.900000E-01   1.00800           0   0.00000     -0.301140E-02
     18737 MEMB     151      PMPE     C217     CG3C31  -0.180000       12.0110           0   0.00000     -0.301140E-02
     18738 MEMB     151      PMPE     H17R     HGA2     0.900000E-01   1.00800           0   0.00000     -0.301140E-02
     18739 MEMB     151      PMPE     H17S     HGA2     0.900000E-01   1.00800           0   0.00000     -0.301140E-02
     18740 MEMB     151      PMPE     C210     CG3RC1  -0.900000E-01   12.0110           0   0.00000     -0.301140E-02
     18741 MEMB     151      PMPE     H10R     HGA1     0.900000E-01   1.00800           0   0.00000     -0.301140E-02
     18742 MEMB     151      PMPE     C211     CTL2    -0.180000       12.0110           0   0.00000     -0.301140E-02
     18743 MEMB     151      PMPE     H11R     HAL2     0.900000E-01   1.00800           0   0.00000     -0.301140E-02
     18744 MEMB     151      PMPE     H11S     HAL2     0.900000E-01   1.00800           0   0.00000     -0.301140E-02
     18745 MEMB     151      PMPE     C212     CTL2    -0.180000       12.0110           0   0.00000     -0.301140E-02
     18746 MEMB     151      PMPE     H12R     HAL2     0.900000E-01   1.00800           0   0.00000     -0.301140E-02
     18747 MEMB     151      PMPE     H12S     HAL2     0.900000E-01   1.00800           0   0.00000     -0.301140E-02
     18748 MEMB     151      PMPE     C213     CTL2    -0.180000       12.0110           0   0.00000     -0.301140E-02
     18749 MEMB     151      PMPE     H13R     HAL2     0.900000E-01   1.00800           0   0.00000     -0.301140E-02
     18750 MEMB     151      PMPE     H13S     HAL2     0.900000E-01   1.00800           0   0.00000     -0.301140E-02
     18751 MEMB     151      PMPE     C214     CTL2    -0.180000       12.0110           0   0.00000     -0.301140E-02
     18752 MEMB     151      PMPE     H14R     HAL2     0.900000E-01   1.00800           0   0.00000     -0.301140E-02
     18753 MEMB     151      PMPE     H14S     HAL2     0.900000E-01   1.00800           0   0.00000     -0.301140E-02
     18754 MEMB     151      PMPE     C215     CTL2    -0.180000       12.0110           0   0.00000     -0.301140E-02
     18755 MEMB     151      PMPE     H15R     HAL2     0.900000E-01   1.00800           0   0.00000     -0.301140E-02
     18756 MEMB     151      PMPE     H15S     HAL2     0.900000E-01   1.00800           0   0.00000     -0.301140E-02
     18757 MEMB     151      PMPE     C216     CTL3    -0.270000       12.0110           0   0.00000     -0.301140E-02
     18758 MEMB     151      PMPE     H16R     HAL3     0.900000E-01   1.00800           0   0.00000     -0.301140E-02
     18759 MEMB     151      PMPE     H16S     HAL3     0.900000E-01   1.00800           0   0.00000     -0.301140E-02
     18760 MEMB     151      PMPE     H16T     HAL3     0.900000E-01   1.00800           0   0.00000     -0.301140E-02
     18761 MEMB     151      PMPE     C33      CTL2    -0.180000       12.0110           0   0.00000     -0.301140E-02
     18762 MEMB     151      PMPE     H3X      HAL2     0.900000E-01   1.00800           0   0.00000     -0.301140E-02
     18763 MEMB     151      PMPE     H3Y      HAL2     0.900000E-01   1.00800           0   0.00000     -0.301140E-02
     18764 MEMB     151      PMPE     C34      CTL2    -0.180000       12.0110           0   0.00000     -0.301140E-02
     18765 MEMB     151      PMPE     H4X      HAL2     0.900000E-01   1.00800           0   0.00000     -0.301140E-02
     18766 MEMB     151      PMPE     H4Y      HAL2     0.900000E-01   1.00800           0   0.00000     -0.301140E-02
     18767 MEMB     151      PMPE     C35      CTL2    -0.180000       12.0110           0   0.00000     -0.301140E-02
     18768 MEMB     151      PMPE     H5X      HAL2     0.900000E-01   1.00800           0   0.00000     -0.301140E-02
     18769 MEMB     151      PMPE     H5Y      HAL2     0.900000E-01   1.00800           0   0.00000     -0.301140E-02
     18770 MEMB     151      PMPE     C36      CTL2    -0.180000       12.0110           0   0.00000     -0.301140E-02
     18771 MEMB     151      PMPE     H6X      HAL2     0.900000E-01   1.00800           0   0.00000     -0.301140E-02
     18772 MEMB     151      PMPE     H6Y      HAL2     0.900000E-01   1.00800           0   0.00000     -0.301140E-02
     18773 MEMB     151      PMPE     C37      CTL2    -0.180000       12.0110           0   0.00000     -0.301140E-02
     18774 MEMB     151      PMPE     H7X      HAL2     0.900000E-01   1.00800           0   0.00000     -0.301140E-02
     18775 MEMB     151      PMPE     H7Y      HAL2     0.900000E-01   1.00800           0   0.00000     -0.301140E-02
     18776 MEMB     151      PMPE     C38      CTL2    -0.180000       12.0110           0   0.00000     -0.301140E-02
     18777 MEMB     151      PMPE     H8X      HAL2     0.900000E-01   1.00800           0   0.00000     -0.301140E-02
     18778 MEMB     151      PMPE     H8Y      HAL2     0.900000E-01   1.00800           0   0.00000     -0.301140E-02
     18779 MEMB     151      PMPE     C39      CTL2    -0.180000       12.0110           0   0.00000     -0.301140E-02
     18780 MEMB     151      PMPE     H9X      HAL2     0.900000E-01   1.00800           0   0.00000     -0.301140E-02
     18781 MEMB     151      PMPE     H9Y      HAL2     0.900000E-01   1.00800           0   0.00000     -0.301140E-02
     18782 MEMB     151      PMPE     C310     CTL2    -0.180000       12.0110           0   0.00000     -0.301140E-02
     18783 MEMB     151      PMPE     H10X     HAL2     0.900000E-01   1.00800           0   0.00000     -0.301140E-02
     18784 MEMB     151      PMPE     H10Y     HAL2     0.900000E-01   1.00800           0   0.00000     -0.301140E-02
     18785 MEMB     151      PMPE     C311     CTL2    -0.180000       12.0110           0   0.00000     -0.301140E-02
     18786 MEMB     151      PMPE     H11X     HAL2     0.900000E-01   1.00800           0   0.00000     -0.301140E-02
     18787 MEMB     151      PMPE     H11Y     HAL2     0.900000E-01   1.00800           0   0.00000     -0.301140E-02
     18788 MEMB     151      PMPE     C312     CTL2    -0.180000       12.0110           0   0.00000     -0.301140E-02
     18789 MEMB     151      PMPE     H12X     HAL2     0.900000E-01   1.00800           0   0.00000     -0.301140E-02
     18790 MEMB     151      PMPE     H12Y     HAL2     0.900000E-01   1.00800           0   0.00000     -0.301140E-02
     18791 MEMB     151      PMPE     C313     CTL2    -0.180000       12.0110           0   0.00000     -0.301140E-02
     18792 MEMB     151      PMPE     H13X     HAL2     0.900000E-01   1.00800           0   0.00000     -0.301140E-02
     18793 MEMB     151      PMPE     H13Y     HAL2     0.900000E-01   1.00800           0   0.00000     -0.301140E-02
     18794 MEMB     151      PMPE     C314     CTL2    -0.180000       12.0110           0   0.00000     -0.301140E-02
     18795 MEMB     151      PMPE     H14X     HAL2     0.900000E-01   1.00800           0   0.00000     -0.301140E-02
     18796 MEMB     151      PMPE     H14Y     HAL2     0.900000E-01   1.00800           0   0.00000     -0.301140E-02
     18797 MEMB     151      PMPE     C315     CTL2    -0.180000       12.0110           0   0.00000     -0.301140E-02
     18798 MEMB     151      PMPE     H15X     HAL2     0.900000E-01   1.00800           0   0.00000     -0.301140E-02
     18799 MEMB     151      PMPE     H15Y     HAL2     0.900000E-01   1.00800           0   0.00000     -0.301140E-02
     18800 MEMB     151      PMPE     C316     CTL3    -0.270000       12.0110           0   0.00000     -0.301140E-02
     18801 MEMB     151      PMPE     H16X     HAL3     0.900000E-01   1.00800           0   0.00000     -0.301140E-02
     18802 MEMB     151      PMPE     H16Y     HAL3     0.900000E-01   1.00800           0   0.00000     -0.301140E-02
     18803 MEMB     151      PMPE     H16Z     HAL3     0.900000E-01   1.00800           0   0.00000     -0.301140E-02
     18804 MEMB     152      QMPE     N        NH3L    -0.300000       14.0070           0   0.00000     -0.301140E-02
     18805 MEMB     152      QMPE     HN1      HCL      0.330000       1.00800           0   0.00000     -0.301140E-02
     18806 MEMB     152      QMPE     HN2      HCL      0.330000       1.00800           0   0.00000     -0.301140E-02
     18807 MEMB     152      QMPE     HN3      HCL      0.330000       1.00800           0   0.00000     -0.301140E-02
     18808 MEMB     152      QMPE     C12      CTL2     0.130000       12.0110           0   0.00000     -0.301140E-02
     18809 MEMB     152      QMPE     H12A     HAL2     0.900000E-01   1.00800           0   0.00000     -0.301140E-02
     18810 MEMB     152      QMPE     H12B     HAL2     0.900000E-01   1.00800           0   0.00000     -0.301140E-02
     18811 MEMB     152      QMPE     C11      CTL2    -0.800000E-01   12.0110           0   0.00000     -0.301140E-02
     18812 MEMB     152      QMPE     H11A     HAL2     0.900000E-01   1.00800           0   0.00000     -0.301140E-02
     18813 MEMB     152      QMPE     H11B     HAL2     0.900000E-01   1.00800           0   0.00000     -0.301140E-02
     18814 MEMB     152      QMPE     P        PL        1.50000       30.9740           0   0.00000     -0.301140E-02
     18815 MEMB     152      QMPE     O13      O2L     -0.780000       15.9994           0   0.00000     -0.301140E-02
     18816 MEMB     152      QMPE     O14      O2L     -0.780000       15.9994           0   0.00000     -0.301140E-02
     18817 MEMB     152      QMPE     O11      OSLP    -0.570000       15.9994           0   0.00000     -0.301140E-02
     18818 MEMB     152      QMPE     O12      OSLP    -0.570000       15.9994           0   0.00000     -0.301140E-02
     18819 MEMB     152      QMPE     C1       CTL2    -0.800000E-01   12.0110           0   0.00000     -0.301140E-02
     18820 MEMB     152      QMPE     HA       HAL2     0.900000E-01   1.00800           0   0.00000     -0.301140E-02
     18821 MEMB     152      QMPE     HB       HAL2     0.900000E-01   1.00800           0   0.00000     -0.301140E-02
     18822 MEMB     152      QMPE     C2       CTL1     0.170000       12.0110           0   0.00000     -0.301140E-02
     18823 MEMB     152      QMPE     HS       HAL1     0.900000E-01   1.00800           0   0.00000     -0.301140E-02
     18824 MEMB     152      QMPE     O21      OSL     -0.490000       15.9994           0   0.00000     -0.301140E-02
     18825 MEMB     152      QMPE     C21      CL       0.900000       12.0110           0   0.00000     -0.301140E-02
     18826 MEMB     152      QMPE     O22      OBL     -0.630000       15.9994           0   0.00000     -0.301140E-02
     18827 MEMB     152      QMPE     C22      CTL2    -0.220000       12.0110           0   0.00000     -0.301140E-02
     18828 MEMB     152      QMPE     H2R      HAL2     0.900000E-01   1.00800           0   0.00000     -0.301140E-02
     18829 MEMB     152      QMPE     H2S      HAL2     0.900000E-01   1.00800           0   0.00000     -0.301140E-02
     18830 MEMB     152      QMPE     C3       CTL2     0.800000E-01   12.0110           0   0.00000     -0.301140E-02
     18831 MEMB     152      QMPE     HX       HAL2     0.900000E-01   1.00800           0   0.00000     -0.301140E-02
     18832 MEMB     152      QMPE     HY       HAL2     0.900000E-01   1.00800           0   0.00000     -0.301140E-02
     18833 MEMB     152      QMPE     O31      OSL     -0.490000       15.9994           0   0.00000     -0.301140E-02
     18834 MEMB     152      QMPE     C31      CL       0.900000       12.0110           0   0.00000     -0.301140E-02
     18835 MEMB     152      QMPE     O32      OBL     -0.630000       15.9994           0   0.00000     -0.301140E-02
     18836 MEMB     152      QMPE     C32      CTL2    -0.220000       12.0110           0   0.00000     -0.301140E-02
     18837 MEMB     152      QMPE     H2X      HAL2     0.900000E-01   1.00800           0   0.00000     -0.301140E-02
     18838 MEMB     152      QMPE     H2Y      HAL2     0.900000E-01   1.00800           0   0.00000     -0.301140E-02
     18839 MEMB     152      QMPE     C23      CTL2    -0.180000       12.0110           0   0.00000     -0.301140E-02
     18840 MEMB     152      QMPE     H3R      HAL2     0.900000E-01   1.00800           0   0.00000     -0.301140E-02
     18841 MEMB     152      QMPE     H3S      HAL2     0.900000E-01   1.00800           0   0.00000     -0.301140E-02
     18842 MEMB     152      QMPE     C24      CTL2    -0.180000       12.0110           0   0.00000     -0.301140E-02
     18843 MEMB     152      QMPE     H4R      HAL2     0.900000E-01   1.00800           0   0.00000     -0.301140E-02
     18844 MEMB     152      QMPE     H4S      HAL2     0.900000E-01   1.00800           0   0.00000     -0.301140E-02
     18845 MEMB     152      QMPE     C25      CTL2    -0.180000       12.0110           0   0.00000     -0.301140E-02
     18846 MEMB     152      QMPE     H5R      HAL2     0.900000E-01   1.00800           0   0.00000     -0.301140E-02
     18847 MEMB     152      QMPE     H5S      HAL2     0.900000E-01   1.00800           0   0.00000     -0.301140E-02
     18848 MEMB     152      QMPE     C26      CTL2    -0.180000       12.0110           0   0.00000     -0.301140E-02
     18849 MEMB     152      QMPE     H6R      HAL2     0.900000E-01   1.00800           0   0.00000     -0.301140E-02
     18850 MEMB     152      QMPE     H6S      HAL2     0.900000E-01   1.00800           0   0.00000     -0.301140E-02
     18851 MEMB     152      QMPE     C27      CTL2    -0.180000       12.0110           0   0.00000     -0.301140E-02
     18852 MEMB     152      QMPE     H7R      HAL2     0.900000E-01   1.00800           0   0.00000     -0.301140E-02
     18853 MEMB     152      QMPE     H7S      HAL2     0.900000E-01   1.00800           0   0.00000     -0.301140E-02
     18854 MEMB     152      QMPE     C28      CTL2    -0.180000       12.0110           0   0.00000     -0.301140E-02
     18855 MEMB     152      QMPE     H8R      HAL2     0.900000E-01   1.00800           0   0.00000     -0.301140E-02
     18856 MEMB     152      QMPE     H8S      HAL2     0.900000E-01   1.00800           0   0.00000     -0.301140E-02
     18857 MEMB     152      QMPE     C29      CG3RC1  -0.900000E-01   12.0110           0   0.00000     -0.301140E-02
     18858 MEMB     152      QMPE     H9R      HGA1     0.900000E-01   1.00800           0   0.00000     -0.301140E-02
     18859 MEMB     152      QMPE     C217     CG3C31  -0.180000       12.0110           0   0.00000     -0.301140E-02
     18860 MEMB     152      QMPE     H17R     HGA2     0.900000E-01   1.00800           0   0.00000     -0.301140E-02
     18861 MEMB     152      QMPE     H17S     HGA2     0.900000E-01   1.00800           0   0.00000     -0.301140E-02
     18862 MEMB     152      QMPE     C210     CG3RC1  -0.900000E-01   12.0110           0   0.00000     -0.301140E-02
     18863 MEMB     152      QMPE     H10R     HGA1     0.900000E-01   1.00800           0   0.00000     -0.301140E-02
     18864 MEMB     152      QMPE     C211     CTL2    -0.180000       12.0110           0   0.00000     -0.301140E-02
     18865 MEMB     152      QMPE     H11R     HAL2     0.900000E-01   1.00800           0   0.00000     -0.301140E-02
     18866 MEMB     152      QMPE     H11S     HAL2     0.900000E-01   1.00800           0   0.00000     -0.301140E-02
     18867 MEMB     152      QMPE     C212     CTL2    -0.180000       12.0110           0   0.00000     -0.301140E-02
     18868 MEMB     152      QMPE     H12R     HAL2     0.900000E-01   1.00800           0   0.00000     -0.301140E-02
     18869 MEMB     152      QMPE     H12S     HAL2     0.900000E-01   1.00800           0   0.00000     -0.301140E-02
     18870 MEMB     152      QMPE     C213     CTL2    -0.180000       12.0110           0   0.00000     -0.301140E-02
     18871 MEMB     152      QMPE     H13R     HAL2     0.900000E-01   1.00800           0   0.00000     -0.301140E-02
     18872 MEMB     152      QMPE     H13S     HAL2     0.900000E-01   1.00800           0   0.00000     -0.301140E-02
     18873 MEMB     152      QMPE     C214     CTL2    -0.180000       12.0110           0   0.00000     -0.301140E-02
     18874 MEMB     152      QMPE     H14R     HAL2     0.900000E-01   1.00800           0   0.00000     -0.301140E-02
     18875 MEMB     152      QMPE     H14S     HAL2     0.900000E-01   1.00800           0   0.00000     -0.301140E-02
     18876 MEMB     152      QMPE     C215     CTL2    -0.180000       12.0110           0   0.00000     -0.301140E-02
     18877 MEMB     152      QMPE     H15R     HAL2     0.900000E-01   1.00800           0   0.00000     -0.301140E-02
     18878 MEMB     152      QMPE     H15S     HAL2     0.900000E-01   1.00800           0   0.00000     -0.301140E-02
     18879 MEMB     152      QMPE     C216     CTL3    -0.270000       12.0110           0   0.00000     -0.301140E-02
     18880 MEMB     152      QMPE     H16R     HAL3     0.900000E-01   1.00800           0   0.00000     -0.301140E-02
     18881 MEMB     152      QMPE     H16S     HAL3     0.900000E-01   1.00800           0   0.00000     -0.301140E-02
     18882 MEMB     152      QMPE     H16T     HAL3     0.900000E-01   1.00800           0   0.00000     -0.301140E-02
     18883 MEMB     152      QMPE     C33      CTL2    -0.180000       12.0110           0   0.00000     -0.301140E-02
     18884 MEMB     152      QMPE     H3X      HAL2     0.900000E-01   1.00800           0   0.00000     -0.301140E-02
     18885 MEMB     152      QMPE     H3Y      HAL2     0.900000E-01   1.00800           0   0.00000     -0.301140E-02
     18886 MEMB     152      QMPE     C34      CTL2    -0.180000       12.0110           0   0.00000     -0.301140E-02
     18887 MEMB     152      QMPE     H4X      HAL2     0.900000E-01   1.00800           0   0.00000     -0.301140E-02
     18888 MEMB     152      QMPE     H4Y      HAL2     0.900000E-01   1.00800           0   0.00000     -0.301140E-02
     18889 MEMB     152      QMPE     C35      CTL2    -0.180000       12.0110           0   0.00000     -0.301140E-02
     18890 MEMB     152      QMPE     H5X      HAL2     0.900000E-01   1.00800           0   0.00000     -0.301140E-02
     18891 MEMB     152      QMPE     H5Y      HAL2     0.900000E-01   1.00800           0   0.00000     -0.301140E-02
     18892 MEMB     152      QMPE     C36      CTL2    -0.180000       12.0110           0   0.00000     -0.301140E-02
     18893 MEMB     152      QMPE     H6X      HAL2     0.900000E-01   1.00800           0   0.00000     -0.301140E-02
     18894 MEMB     152      QMPE     H6Y      HAL2     0.900000E-01   1.00800           0   0.00000     -0.301140E-02
     18895 MEMB     152      QMPE     C37      CTL2    -0.180000       12.0110           0   0.00000     -0.301140E-02
     18896 MEMB     152      QMPE     H7X      HAL2     0.900000E-01   1.00800           0   0.00000     -0.301140E-02
     18897 MEMB     152      QMPE     H7Y      HAL2     0.900000E-01   1.00800           0   0.00000     -0.301140E-02
     18898 MEMB     152      QMPE     C38      CTL2    -0.180000       12.0110           0   0.00000     -0.301140E-02
     18899 MEMB     152      QMPE     H8X      HAL2     0.900000E-01   1.00800           0   0.00000     -0.301140E-02
     18900 MEMB     152      QMPE     H8Y      HAL2     0.900000E-01   1.00800           0   0.00000     -0.301140E-02
     18901 MEMB     152      QMPE     C39      CTL2    -0.180000       12.0110           0   0.00000     -0.301140E-02
     18902 MEMB     152      QMPE     H9X      HAL2     0.900000E-01   1.00800           0   0.00000     -0.301140E-02
     18903 MEMB     152      QMPE     H9Y      HAL2     0.900000E-01   1.00800           0   0.00000     -0.301140E-02
     18904 MEMB     152      QMPE     C310     CTL2    -0.180000       12.0110           0   0.00000     -0.301140E-02
     18905 MEMB     152      QMPE     H10X     HAL2     0.900000E-01   1.00800           0   0.00000     -0.301140E-02
     18906 MEMB     152      QMPE     H10Y     HAL2     0.900000E-01   1.00800           0   0.00000     -0.301140E-02
     18907 MEMB     152      QMPE     C311     CTL2    -0.180000       12.0110           0   0.00000     -0.301140E-02
     18908 MEMB     152      QMPE     H11X     HAL2     0.900000E-01   1.00800           0   0.00000     -0.301140E-02
     18909 MEMB     152      QMPE     H11Y     HAL2     0.900000E-01   1.00800           0   0.00000     -0.301140E-02
     18910 MEMB     152      QMPE     C312     CTL2    -0.180000       12.0110           0   0.00000     -0.301140E-02
     18911 MEMB     152      QMPE     H12X     HAL2     0.900000E-01   1.00800           0   0.00000     -0.301140E-02
     18912 MEMB     152      QMPE     H12Y     HAL2     0.900000E-01   1.00800           0   0.00000     -0.301140E-02
     18913 MEMB     152      QMPE     C313     CTL2    -0.180000       12.0110           0   0.00000     -0.301140E-02
     18914 MEMB     152      QMPE     H13X     HAL2     0.900000E-01   1.00800           0   0.00000     -0.301140E-02
     18915 MEMB     152      QMPE     H13Y     HAL2     0.900000E-01   1.00800           0   0.00000     -0.301140E-02
     18916 MEMB     152      QMPE     C314     CTL2    -0.180000       12.0110           0   0.00000     -0.301140E-02
     18917 MEMB     152      QMPE     H14X     HAL2     0.900000E-01   1.00800           0   0.00000     -0.301140E-02
     18918 MEMB     152      QMPE     H14Y     HAL2     0.900000E-01   1.00800           0   0.00000     -0.301140E-02
     18919 MEMB     152      QMPE     C315     CTL3    -0.270000       12.0110           0   0.00000     -0.301140E-02
     18920 MEMB     152      QMPE     H15X     HAL3     0.900000E-01   1.00800           0   0.00000     -0.301140E-02
     18921 MEMB     152      QMPE     H15Y     HAL3     0.900000E-01   1.00800           0   0.00000     -0.301140E-02
     18922 MEMB     152      QMPE     H15Z     HAL3     0.900000E-01   1.00800           0   0.00000     -0.301140E-02
     18923 MEMB     153      PMPE     N        NH3L    -0.300000       14.0070           0   0.00000     -0.301140E-02
     18924 MEMB     153      PMPE     HN1      HCL      0.330000       1.00800           0   0.00000     -0.301140E-02
     18925 MEMB     153      PMPE     HN2      HCL      0.330000       1.00800           0   0.00000     -0.301140E-02
     18926 MEMB     153      PMPE     HN3      HCL      0.330000       1.00800           0   0.00000     -0.301140E-02
     18927 MEMB     153      PMPE     C12      CTL2     0.130000       12.0110           0   0.00000     -0.301140E-02
     18928 MEMB     153      PMPE     H12A     HAL2     0.900000E-01   1.00800           0   0.00000     -0.301140E-02
     18929 MEMB     153      PMPE     H12B     HAL2     0.900000E-01   1.00800           0   0.00000     -0.301140E-02
     18930 MEMB     153      PMPE     C11      CTL2    -0.800000E-01   12.0110           0   0.00000     -0.301140E-02
     18931 MEMB     153      PMPE     H11A     HAL2     0.900000E-01   1.00800           0   0.00000     -0.301140E-02
     18932 MEMB     153      PMPE     H11B     HAL2     0.900000E-01   1.00800           0   0.00000     -0.301140E-02
     18933 MEMB     153      PMPE     P        PL        1.50000       30.9740           0   0.00000     -0.301140E-02
     18934 MEMB     153      PMPE     O13      O2L     -0.780000       15.9994           0   0.00000     -0.301140E-02
     18935 MEMB     153      PMPE     O14      O2L     -0.780000       15.9994           0   0.00000     -0.301140E-02
     18936 MEMB     153      PMPE     O11      OSLP    -0.570000       15.9994           0   0.00000     -0.301140E-02
     18937 MEMB     153      PMPE     O12      OSLP    -0.570000       15.9994           0   0.00000     -0.301140E-02
     18938 MEMB     153      PMPE     C1       CTL2    -0.800000E-01   12.0110           0   0.00000     -0.301140E-02
     18939 MEMB     153      PMPE     HA       HAL2     0.900000E-01   1.00800           0   0.00000     -0.301140E-02
     18940 MEMB     153      PMPE     HB       HAL2     0.900000E-01   1.00800           0   0.00000     -0.301140E-02
     18941 MEMB     153      PMPE     C2       CTL1     0.170000       12.0110           0   0.00000     -0.301140E-02
     18942 MEMB     153      PMPE     HS       HAL1     0.900000E-01   1.00800           0   0.00000     -0.301140E-02
     18943 MEMB     153      PMPE     O21      OSL     -0.490000       15.9994           0   0.00000     -0.301140E-02
     18944 MEMB     153      PMPE     C21      CL       0.900000       12.0110           0   0.00000     -0.301140E-02
     18945 MEMB     153      PMPE     O22      OBL     -0.630000       15.9994           0   0.00000     -0.301140E-02
     18946 MEMB     153      PMPE     C22      CTL2    -0.220000       12.0110           0   0.00000     -0.301140E-02
     18947 MEMB     153      PMPE     H2R      HAL2     0.900000E-01   1.00800           0   0.00000     -0.301140E-02
     18948 MEMB     153      PMPE     H2S      HAL2     0.900000E-01   1.00800           0   0.00000     -0.301140E-02
     18949 MEMB     153      PMPE     C3       CTL2     0.800000E-01   12.0110           0   0.00000     -0.301140E-02
     18950 MEMB     153      PMPE     HX       HAL2     0.900000E-01   1.00800           0   0.00000     -0.301140E-02
     18951 MEMB     153      PMPE     HY       HAL2     0.900000E-01   1.00800           0   0.00000     -0.301140E-02
     18952 MEMB     153      PMPE     O31      OSL     -0.490000       15.9994           0   0.00000     -0.301140E-02
     18953 MEMB     153      PMPE     C31      CL       0.900000       12.0110           0   0.00000     -0.301140E-02
     18954 MEMB     153      PMPE     O32      OBL     -0.630000       15.9994           0   0.00000     -0.301140E-02
     18955 MEMB     153      PMPE     C32      CTL2    -0.220000       12.0110           0   0.00000     -0.301140E-02
     18956 MEMB     153      PMPE     H2X      HAL2     0.900000E-01   1.00800           0   0.00000     -0.301140E-02
     18957 MEMB     153      PMPE     H2Y      HAL2     0.900000E-01   1.00800           0   0.00000     -0.301140E-02
     18958 MEMB     153      PMPE     C23      CTL2    -0.180000       12.0110           0   0.00000     -0.301140E-02
     18959 MEMB     153      PMPE     H3R      HAL2     0.900000E-01   1.00800           0   0.00000     -0.301140E-02
     18960 MEMB     153      PMPE     H3S      HAL2     0.900000E-01   1.00800           0   0.00000     -0.301140E-02
     18961 MEMB     153      PMPE     C24      CTL2    -0.180000       12.0110           0   0.00000     -0.301140E-02
     18962 MEMB     153      PMPE     H4R      HAL2     0.900000E-01   1.00800           0   0.00000     -0.301140E-02
     18963 MEMB     153      PMPE     H4S      HAL2     0.900000E-01   1.00800           0   0.00000     -0.301140E-02
     18964 MEMB     153      PMPE     C25      CTL2    -0.180000       12.0110           0   0.00000     -0.301140E-02
     18965 MEMB     153      PMPE     H5R      HAL2     0.900000E-01   1.00800           0   0.00000     -0.301140E-02
     18966 MEMB     153      PMPE     H5S      HAL2     0.900000E-01   1.00800           0   0.00000     -0.301140E-02
     18967 MEMB     153      PMPE     C26      CTL2    -0.180000       12.0110           0   0.00000     -0.301140E-02
     18968 MEMB     153      PMPE     H6R      HAL2     0.900000E-01   1.00800           0   0.00000     -0.301140E-02
     18969 MEMB     153      PMPE     H6S      HAL2     0.900000E-01   1.00800           0   0.00000     -0.301140E-02
     18970 MEMB     153      PMPE     C27      CTL2    -0.180000       12.0110           0   0.00000     -0.301140E-02
     18971 MEMB     153      PMPE     H7R      HAL2     0.900000E-01   1.00800           0   0.00000     -0.301140E-02
     18972 MEMB     153      PMPE     H7S      HAL2     0.900000E-01   1.00800           0   0.00000     -0.301140E-02
     18973 MEMB     153      PMPE     C28      CTL2    -0.180000       12.0110           0   0.00000     -0.301140E-02
     18974 MEMB     153      PMPE     H8R      HAL2     0.900000E-01   1.00800           0   0.00000     -0.301140E-02
     18975 MEMB     153      PMPE     H8S      HAL2     0.900000E-01   1.00800           0   0.00000     -0.301140E-02
     18976 MEMB     153      PMPE     C29      CG3RC1  -0.900000E-01   12.0110           0   0.00000     -0.301140E-02
     18977 MEMB     153      PMPE     H9R      HGA1     0.900000E-01   1.00800           0   0.00000     -0.301140E-02
     18978 MEMB     153      PMPE     C217     CG3C31  -0.180000       12.0110           0   0.00000     -0.301140E-02
     18979 MEMB     153      PMPE     H17R     HGA2     0.900000E-01   1.00800           0   0.00000     -0.301140E-02
     18980 MEMB     153      PMPE     H17S     HGA2     0.900000E-01   1.00800           0   0.00000     -0.301140E-02
     18981 MEMB     153      PMPE     C210     CG3RC1  -0.900000E-01   12.0110           0   0.00000     -0.301140E-02
     18982 MEMB     153      PMPE     H10R     HGA1     0.900000E-01   1.00800           0   0.00000     -0.301140E-02
     18983 MEMB     153      PMPE     C211     CTL2    -0.180000       12.0110           0   0.00000     -0.301140E-02
     18984 MEMB     153      PMPE     H11R     HAL2     0.900000E-01   1.00800           0   0.00000     -0.301140E-02
     18985 MEMB     153      PMPE     H11S     HAL2     0.900000E-01   1.00800           0   0.00000     -0.301140E-02
     18986 MEMB     153      PMPE     C212     CTL2    -0.180000       12.0110           0   0.00000     -0.301140E-02
     18987 MEMB     153      PMPE     H12R     HAL2     0.900000E-01   1.00800           0   0.00000     -0.301140E-02
     18988 MEMB     153      PMPE     H12S     HAL2     0.900000E-01   1.00800           0   0.00000     -0.301140E-02
     18989 MEMB     153      PMPE     C213     CTL2    -0.180000       12.0110           0   0.00000     -0.301140E-02
     18990 MEMB     153      PMPE     H13R     HAL2     0.900000E-01   1.00800           0   0.00000     -0.301140E-02
     18991 MEMB     153      PMPE     H13S     HAL2     0.900000E-01   1.00800           0   0.00000     -0.301140E-02
     18992 MEMB     153      PMPE     C214     CTL2    -0.180000       12.0110           0   0.00000     -0.301140E-02
     18993 MEMB     153      PMPE     H14R     HAL2     0.900000E-01   1.00800           0   0.00000     -0.301140E-02
     18994 MEMB     153      PMPE     H14S     HAL2     0.900000E-01   1.00800           0   0.00000     -0.301140E-02
     18995 MEMB     153      PMPE     C215     CTL2    -0.180000       12.0110           0   0.00000     -0.301140E-02
     18996 MEMB     153      PMPE     H15R     HAL2     0.900000E-01   1.00800           0   0.00000     -0.301140E-02
     18997 MEMB     153      PMPE     H15S     HAL2     0.900000E-01   1.00800           0   0.00000     -0.301140E-02
     18998 MEMB     153      PMPE     C216     CTL3    -0.270000       12.0110           0   0.00000     -0.301140E-02
     18999 MEMB     153      PMPE     H16R     HAL3     0.900000E-01   1.00800           0   0.00000     -0.301140E-02
     19000 MEMB     153      PMPE     H16S     HAL3     0.900000E-01   1.00800           0   0.00000     -0.301140E-02
     19001 MEMB     153      PMPE     H16T     HAL3     0.900000E-01   1.00800           0   0.00000     -0.301140E-02
     19002 MEMB     153      PMPE     C33      CTL2    -0.180000       12.0110           0   0.00000     -0.301140E-02
     19003 MEMB     153      PMPE     H3X      HAL2     0.900000E-01   1.00800           0   0.00000     -0.301140E-02
     19004 MEMB     153      PMPE     H3Y      HAL2     0.900000E-01   1.00800           0   0.00000     -0.301140E-02
     19005 MEMB     153      PMPE     C34      CTL2    -0.180000       12.0110           0   0.00000     -0.301140E-02
     19006 MEMB     153      PMPE     H4X      HAL2     0.900000E-01   1.00800           0   0.00000     -0.301140E-02
     19007 MEMB     153      PMPE     H4Y      HAL2     0.900000E-01   1.00800           0   0.00000     -0.301140E-02
     19008 MEMB     153      PMPE     C35      CTL2    -0.180000       12.0110           0   0.00000     -0.301140E-02
     19009 MEMB     153      PMPE     H5X      HAL2     0.900000E-01   1.00800           0   0.00000     -0.301140E-02
     19010 MEMB     153      PMPE     H5Y      HAL2     0.900000E-01   1.00800           0   0.00000     -0.301140E-02
     19011 MEMB     153      PMPE     C36      CTL2    -0.180000       12.0110           0   0.00000     -0.301140E-02
     19012 MEMB     153      PMPE     H6X      HAL2     0.900000E-01   1.00800           0   0.00000     -0.301140E-02
     19013 MEMB     153      PMPE     H6Y      HAL2     0.900000E-01   1.00800           0   0.00000     -0.301140E-02
     19014 MEMB     153      PMPE     C37      CTL2    -0.180000       12.0110           0   0.00000     -0.301140E-02
     19015 MEMB     153      PMPE     H7X      HAL2     0.900000E-01   1.00800           0   0.00000     -0.301140E-02
     19016 MEMB     153      PMPE     H7Y      HAL2     0.900000E-01   1.00800           0   0.00000     -0.301140E-02
     19017 MEMB     153      PMPE     C38      CTL2    -0.180000       12.0110           0   0.00000     -0.301140E-02
     19018 MEMB     153      PMPE     H8X      HAL2     0.900000E-01   1.00800           0   0.00000     -0.301140E-02
     19019 MEMB     153      PMPE     H8Y      HAL2     0.900000E-01   1.00800           0   0.00000     -0.301140E-02
     19020 MEMB     153      PMPE     C39      CTL2    -0.180000       12.0110           0   0.00000     -0.301140E-02
     19021 MEMB     153      PMPE     H9X      HAL2     0.900000E-01   1.00800           0   0.00000     -0.301140E-02
     19022 MEMB     153      PMPE     H9Y      HAL2     0.900000E-01   1.00800           0   0.00000     -0.301140E-02
     19023 MEMB     153      PMPE     C310     CTL2    -0.180000       12.0110           0   0.00000     -0.301140E-02
     19024 MEMB     153      PMPE     H10X     HAL2     0.900000E-01   1.00800           0   0.00000     -0.301140E-02
     19025 MEMB     153      PMPE     H10Y     HAL2     0.900000E-01   1.00800           0   0.00000     -0.301140E-02
     19026 MEMB     153      PMPE     C311     CTL2    -0.180000       12.0110           0   0.00000     -0.301140E-02
     19027 MEMB     153      PMPE     H11X     HAL2     0.900000E-01   1.00800           0   0.00000     -0.301140E-02
     19028 MEMB     153      PMPE     H11Y     HAL2     0.900000E-01   1.00800           0   0.00000     -0.301140E-02
     19029 MEMB     153      PMPE     C312     CTL2    -0.180000       12.0110           0   0.00000     -0.301140E-02
     19030 MEMB     153      PMPE     H12X     HAL2     0.900000E-01   1.00800           0   0.00000     -0.301140E-02
     19031 MEMB     153      PMPE     H12Y     HAL2     0.900000E-01   1.00800           0   0.00000     -0.301140E-02
     19032 MEMB     153      PMPE     C313     CTL2    -0.180000       12.0110           0   0.00000     -0.301140E-02
     19033 MEMB     153      PMPE     H13X     HAL2     0.900000E-01   1.00800           0   0.00000     -0.301140E-02
     19034 MEMB     153      PMPE     H13Y     HAL2     0.900000E-01   1.00800           0   0.00000     -0.301140E-02
     19035 MEMB     153      PMPE     C314     CTL2    -0.180000       12.0110           0   0.00000     -0.301140E-02
     19036 MEMB     153      PMPE     H14X     HAL2     0.900000E-01   1.00800           0   0.00000     -0.301140E-02
     19037 MEMB     153      PMPE     H14Y     HAL2     0.900000E-01   1.00800           0   0.00000     -0.301140E-02
     19038 MEMB     153      PMPE     C315     CTL2    -0.180000       12.0110           0   0.00000     -0.301140E-02
     19039 MEMB     153      PMPE     H15X     HAL2     0.900000E-01   1.00800           0   0.00000     -0.301140E-02
     19040 MEMB     153      PMPE     H15Y     HAL2     0.900000E-01   1.00800           0   0.00000     -0.301140E-02
     19041 MEMB     153      PMPE     C316     CTL3    -0.270000       12.0110           0   0.00000     -0.301140E-02
     19042 MEMB     153      PMPE     H16X     HAL3     0.900000E-01   1.00800           0   0.00000     -0.301140E-02
     19043 MEMB     153      PMPE     H16Y     HAL3     0.900000E-01   1.00800           0   0.00000     -0.301140E-02
     19044 MEMB     153      PMPE     H16Z     HAL3     0.900000E-01   1.00800           0   0.00000     -0.301140E-02
     19045 MEMB     154      PMPE     N        NH3L    -0.300000       14.0070           0   0.00000     -0.301140E-02
     19046 MEMB     154      PMPE     HN1      HCL      0.330000       1.00800           0   0.00000     -0.301140E-02
     19047 MEMB     154      PMPE     HN2      HCL      0.330000       1.00800           0   0.00000     -0.301140E-02
     19048 MEMB     154      PMPE     HN3      HCL      0.330000       1.00800           0   0.00000     -0.301140E-02
     19049 MEMB     154      PMPE     C12      CTL2     0.130000       12.0110           0   0.00000     -0.301140E-02
     19050 MEMB     154      PMPE     H12A     HAL2     0.900000E-01   1.00800           0   0.00000     -0.301140E-02
     19051 MEMB     154      PMPE     H12B     HAL2     0.900000E-01   1.00800           0   0.00000     -0.301140E-02
     19052 MEMB     154      PMPE     C11      CTL2    -0.800000E-01   12.0110           0   0.00000     -0.301140E-02
     19053 MEMB     154      PMPE     H11A     HAL2     0.900000E-01   1.00800           0   0.00000     -0.301140E-02
     19054 MEMB     154      PMPE     H11B     HAL2     0.900000E-01   1.00800           0   0.00000     -0.301140E-02
     19055 MEMB     154      PMPE     P        PL        1.50000       30.9740           0   0.00000     -0.301140E-02
     19056 MEMB     154      PMPE     O13      O2L     -0.780000       15.9994           0   0.00000     -0.301140E-02
     19057 MEMB     154      PMPE     O14      O2L     -0.780000       15.9994           0   0.00000     -0.301140E-02
     19058 MEMB     154      PMPE     O11      OSLP    -0.570000       15.9994           0   0.00000     -0.301140E-02
     19059 MEMB     154      PMPE     O12      OSLP    -0.570000       15.9994           0   0.00000     -0.301140E-02
     19060 MEMB     154      PMPE     C1       CTL2    -0.800000E-01   12.0110           0   0.00000     -0.301140E-02
     19061 MEMB     154      PMPE     HA       HAL2     0.900000E-01   1.00800           0   0.00000     -0.301140E-02
     19062 MEMB     154      PMPE     HB       HAL2     0.900000E-01   1.00800           0   0.00000     -0.301140E-02
     19063 MEMB     154      PMPE     C2       CTL1     0.170000       12.0110           0   0.00000     -0.301140E-02
     19064 MEMB     154      PMPE     HS       HAL1     0.900000E-01   1.00800           0   0.00000     -0.301140E-02
     19065 MEMB     154      PMPE     O21      OSL     -0.490000       15.9994           0   0.00000     -0.301140E-02
     19066 MEMB     154      PMPE     C21      CL       0.900000       12.0110           0   0.00000     -0.301140E-02
     19067 MEMB     154      PMPE     O22      OBL     -0.630000       15.9994           0   0.00000     -0.301140E-02
     19068 MEMB     154      PMPE     C22      CTL2    -0.220000       12.0110           0   0.00000     -0.301140E-02
     19069 MEMB     154      PMPE     H2R      HAL2     0.900000E-01   1.00800           0   0.00000     -0.301140E-02
     19070 MEMB     154      PMPE     H2S      HAL2     0.900000E-01   1.00800           0   0.00000     -0.301140E-02
     19071 MEMB     154      PMPE     C3       CTL2     0.800000E-01   12.0110           0   0.00000     -0.301140E-02
     19072 MEMB     154      PMPE     HX       HAL2     0.900000E-01   1.00800           0   0.00000     -0.301140E-02
     19073 MEMB     154      PMPE     HY       HAL2     0.900000E-01   1.00800           0   0.00000     -0.301140E-02
     19074 MEMB     154      PMPE     O31      OSL     -0.490000       15.9994           0   0.00000     -0.301140E-02
     19075 MEMB     154      PMPE     C31      CL       0.900000       12.0110           0   0.00000     -0.301140E-02
     19076 MEMB     154      PMPE     O32      OBL     -0.630000       15.9994           0   0.00000     -0.301140E-02
     19077 MEMB     154      PMPE     C32      CTL2    -0.220000       12.0110           0   0.00000     -0.301140E-02
     19078 MEMB     154      PMPE     H2X      HAL2     0.900000E-01   1.00800           0   0.00000     -0.301140E-02
     19079 MEMB     154      PMPE     H2Y      HAL2     0.900000E-01   1.00800           0   0.00000     -0.301140E-02
     19080 MEMB     154      PMPE     C23      CTL2    -0.180000       12.0110           0   0.00000     -0.301140E-02
     19081 MEMB     154      PMPE     H3R      HAL2     0.900000E-01   1.00800           0   0.00000     -0.301140E-02
     19082 MEMB     154      PMPE     H3S      HAL2     0.900000E-01   1.00800           0   0.00000     -0.301140E-02
     19083 MEMB     154      PMPE     C24      CTL2    -0.180000       12.0110           0   0.00000     -0.301140E-02
     19084 MEMB     154      PMPE     H4R      HAL2     0.900000E-01   1.00800           0   0.00000     -0.301140E-02
     19085 MEMB     154      PMPE     H4S      HAL2     0.900000E-01   1.00800           0   0.00000     -0.301140E-02
     19086 MEMB     154      PMPE     C25      CTL2    -0.180000       12.0110           0   0.00000     -0.301140E-02
     19087 MEMB     154      PMPE     H5R      HAL2     0.900000E-01   1.00800           0   0.00000     -0.301140E-02
     19088 MEMB     154      PMPE     H5S      HAL2     0.900000E-01   1.00800           0   0.00000     -0.301140E-02
     19089 MEMB     154      PMPE     C26      CTL2    -0.180000       12.0110           0   0.00000     -0.301140E-02
     19090 MEMB     154      PMPE     H6R      HAL2     0.900000E-01   1.00800           0   0.00000     -0.301140E-02
     19091 MEMB     154      PMPE     H6S      HAL2     0.900000E-01   1.00800           0   0.00000     -0.301140E-02
     19092 MEMB     154      PMPE     C27      CTL2    -0.180000       12.0110           0   0.00000     -0.301140E-02
     19093 MEMB     154      PMPE     H7R      HAL2     0.900000E-01   1.00800           0   0.00000     -0.301140E-02
     19094 MEMB     154      PMPE     H7S      HAL2     0.900000E-01   1.00800           0   0.00000     -0.301140E-02
     19095 MEMB     154      PMPE     C28      CTL2    -0.180000       12.0110           0   0.00000     -0.301140E-02
     19096 MEMB     154      PMPE     H8R      HAL2     0.900000E-01   1.00800           0   0.00000     -0.301140E-02
     19097 MEMB     154      PMPE     H8S      HAL2     0.900000E-01   1.00800           0   0.00000     -0.301140E-02
     19098 MEMB     154      PMPE     C29      CG3RC1  -0.900000E-01   12.0110           0   0.00000     -0.301140E-02
     19099 MEMB     154      PMPE     H9R      HGA1     0.900000E-01   1.00800           0   0.00000     -0.301140E-02
     19100 MEMB     154      PMPE     C217     CG3C31  -0.180000       12.0110           0   0.00000     -0.301140E-02
     19101 MEMB     154      PMPE     H17R     HGA2     0.900000E-01   1.00800           0   0.00000     -0.301140E-02
     19102 MEMB     154      PMPE     H17S     HGA2     0.900000E-01   1.00800           0   0.00000     -0.301140E-02
     19103 MEMB     154      PMPE     C210     CG3RC1  -0.900000E-01   12.0110           0   0.00000     -0.301140E-02
     19104 MEMB     154      PMPE     H10R     HGA1     0.900000E-01   1.00800           0   0.00000     -0.301140E-02
     19105 MEMB     154      PMPE     C211     CTL2    -0.180000       12.0110           0   0.00000     -0.301140E-02
     19106 MEMB     154      PMPE     H11R     HAL2     0.900000E-01   1.00800           0   0.00000     -0.301140E-02
     19107 MEMB     154      PMPE     H11S     HAL2     0.900000E-01   1.00800           0   0.00000     -0.301140E-02
     19108 MEMB     154      PMPE     C212     CTL2    -0.180000       12.0110           0   0.00000     -0.301140E-02
     19109 MEMB     154      PMPE     H12R     HAL2     0.900000E-01   1.00800           0   0.00000     -0.301140E-02
     19110 MEMB     154      PMPE     H12S     HAL2     0.900000E-01   1.00800           0   0.00000     -0.301140E-02
     19111 MEMB     154      PMPE     C213     CTL2    -0.180000       12.0110           0   0.00000     -0.301140E-02
     19112 MEMB     154      PMPE     H13R     HAL2     0.900000E-01   1.00800           0   0.00000     -0.301140E-02
     19113 MEMB     154      PMPE     H13S     HAL2     0.900000E-01   1.00800           0   0.00000     -0.301140E-02
     19114 MEMB     154      PMPE     C214     CTL2    -0.180000       12.0110           0   0.00000     -0.301140E-02
     19115 MEMB     154      PMPE     H14R     HAL2     0.900000E-01   1.00800           0   0.00000     -0.301140E-02
     19116 MEMB     154      PMPE     H14S     HAL2     0.900000E-01   1.00800           0   0.00000     -0.301140E-02
     19117 MEMB     154      PMPE     C215     CTL2    -0.180000       12.0110           0   0.00000     -0.301140E-02
     19118 MEMB     154      PMPE     H15R     HAL2     0.900000E-01   1.00800           0   0.00000     -0.301140E-02
     19119 MEMB     154      PMPE     H15S     HAL2     0.900000E-01   1.00800           0   0.00000     -0.301140E-02
     19120 MEMB     154      PMPE     C216     CTL3    -0.270000       12.0110           0   0.00000     -0.301140E-02
     19121 MEMB     154      PMPE     H16R     HAL3     0.900000E-01   1.00800           0   0.00000     -0.301140E-02
     19122 MEMB     154      PMPE     H16S     HAL3     0.900000E-01   1.00800           0   0.00000     -0.301140E-02
     19123 MEMB     154      PMPE     H16T     HAL3     0.900000E-01   1.00800           0   0.00000     -0.301140E-02
     19124 MEMB     154      PMPE     C33      CTL2    -0.180000       12.0110           0   0.00000     -0.301140E-02
     19125 MEMB     154      PMPE     H3X      HAL2     0.900000E-01   1.00800           0   0.00000     -0.301140E-02
     19126 MEMB     154      PMPE     H3Y      HAL2     0.900000E-01   1.00800           0   0.00000     -0.301140E-02
     19127 MEMB     154      PMPE     C34      CTL2    -0.180000       12.0110           0   0.00000     -0.301140E-02
     19128 MEMB     154      PMPE     H4X      HAL2     0.900000E-01   1.00800           0   0.00000     -0.301140E-02
     19129 MEMB     154      PMPE     H4Y      HAL2     0.900000E-01   1.00800           0   0.00000     -0.301140E-02
     19130 MEMB     154      PMPE     C35      CTL2    -0.180000       12.0110           0   0.00000     -0.301140E-02
     19131 MEMB     154      PMPE     H5X      HAL2     0.900000E-01   1.00800           0   0.00000     -0.301140E-02
     19132 MEMB     154      PMPE     H5Y      HAL2     0.900000E-01   1.00800           0   0.00000     -0.301140E-02
     19133 MEMB     154      PMPE     C36      CTL2    -0.180000       12.0110           0   0.00000     -0.301140E-02
     19134 MEMB     154      PMPE     H6X      HAL2     0.900000E-01   1.00800           0   0.00000     -0.301140E-02
     19135 MEMB     154      PMPE     H6Y      HAL2     0.900000E-01   1.00800           0   0.00000     -0.301140E-02
     19136 MEMB     154      PMPE     C37      CTL2    -0.180000       12.0110           0   0.00000     -0.301140E-02
     19137 MEMB     154      PMPE     H7X      HAL2     0.900000E-01   1.00800           0   0.00000     -0.301140E-02
     19138 MEMB     154      PMPE     H7Y      HAL2     0.900000E-01   1.00800           0   0.00000     -0.301140E-02
     19139 MEMB     154      PMPE     C38      CTL2    -0.180000       12.0110           0   0.00000     -0.301140E-02
     19140 MEMB     154      PMPE     H8X      HAL2     0.900000E-01   1.00800           0   0.00000     -0.301140E-02
     19141 MEMB     154      PMPE     H8Y      HAL2     0.900000E-01   1.00800           0   0.00000     -0.301140E-02
     19142 MEMB     154      PMPE     C39      CTL2    -0.180000       12.0110           0   0.00000     -0.301140E-02
     19143 MEMB     154      PMPE     H9X      HAL2     0.900000E-01   1.00800           0   0.00000     -0.301140E-02
     19144 MEMB     154      PMPE     H9Y      HAL2     0.900000E-01   1.00800           0   0.00000     -0.301140E-02
     19145 MEMB     154      PMPE     C310     CTL2    -0.180000       12.0110           0   0.00000     -0.301140E-02
     19146 MEMB     154      PMPE     H10X     HAL2     0.900000E-01   1.00800           0   0.00000     -0.301140E-02
     19147 MEMB     154      PMPE     H10Y     HAL2     0.900000E-01   1.00800           0   0.00000     -0.301140E-02
     19148 MEMB     154      PMPE     C311     CTL2    -0.180000       12.0110           0   0.00000     -0.301140E-02
     19149 MEMB     154      PMPE     H11X     HAL2     0.900000E-01   1.00800           0   0.00000     -0.301140E-02
     19150 MEMB     154      PMPE     H11Y     HAL2     0.900000E-01   1.00800           0   0.00000     -0.301140E-02
     19151 MEMB     154      PMPE     C312     CTL2    -0.180000       12.0110           0   0.00000     -0.301140E-02
     19152 MEMB     154      PMPE     H12X     HAL2     0.900000E-01   1.00800           0   0.00000     -0.301140E-02
     19153 MEMB     154      PMPE     H12Y     HAL2     0.900000E-01   1.00800           0   0.00000     -0.301140E-02
     19154 MEMB     154      PMPE     C313     CTL2    -0.180000       12.0110           0   0.00000     -0.301140E-02
     19155 MEMB     154      PMPE     H13X     HAL2     0.900000E-01   1.00800           0   0.00000     -0.301140E-02
     19156 MEMB     154      PMPE     H13Y     HAL2     0.900000E-01   1.00800           0   0.00000     -0.301140E-02
     19157 MEMB     154      PMPE     C314     CTL2    -0.180000       12.0110           0   0.00000     -0.301140E-02
     19158 MEMB     154      PMPE     H14X     HAL2     0.900000E-01   1.00800           0   0.00000     -0.301140E-02
     19159 MEMB     154      PMPE     H14Y     HAL2     0.900000E-01   1.00800           0   0.00000     -0.301140E-02
     19160 MEMB     154      PMPE     C315     CTL2    -0.180000       12.0110           0   0.00000     -0.301140E-02
     19161 MEMB     154      PMPE     H15X     HAL2     0.900000E-01   1.00800           0   0.00000     -0.301140E-02
     19162 MEMB     154      PMPE     H15Y     HAL2     0.900000E-01   1.00800           0   0.00000     -0.301140E-02
     19163 MEMB     154      PMPE     C316     CTL3    -0.270000       12.0110           0   0.00000     -0.301140E-02
     19164 MEMB     154      PMPE     H16X     HAL3     0.900000E-01   1.00800           0   0.00000     -0.301140E-02
     19165 MEMB     154      PMPE     H16Y     HAL3     0.900000E-01   1.00800           0   0.00000     -0.301140E-02
     19166 MEMB     154      PMPE     H16Z     HAL3     0.900000E-01   1.00800           0   0.00000     -0.301140E-02
     19167 MEMB     155      PYPG     C13      CTL2     0.500000E-01   12.0110           0   0.00000     -0.301140E-02
     19168 MEMB     155      PYPG     H13A     HAL2     0.900000E-01   1.00800           0   0.00000     -0.301140E-02
     19169 MEMB     155      PYPG     H13B     HAL2     0.900000E-01   1.00800           0   0.00000     -0.301140E-02
     19170 MEMB     155      PYPG     OC3      OHL     -0.660000       15.9994           0   0.00000     -0.301140E-02
     19171 MEMB     155      PYPG     HO3      HOL      0.430000       1.00800           0   0.00000     -0.301140E-02
     19172 MEMB     155      PYPG     C12      CTL1     0.140000       12.0110           0   0.00000     -0.301140E-02
     19173 MEMB     155      PYPG     H12A     HAL1     0.900000E-01   1.00800           0   0.00000     -0.301140E-02
     19174 MEMB     155      PYPG     OC2      OHL     -0.660000       15.9994           0   0.00000     -0.301140E-02
     19175 MEMB     155      PYPG     HO2      HOL      0.430000       1.00800           0   0.00000     -0.301140E-02
     19176 MEMB     155      PYPG     C11      CTL2    -0.800000E-01   12.0110           0   0.00000     -0.301140E-02
     19177 MEMB     155      PYPG     H11A     HAL2     0.900000E-01   1.00800           0   0.00000     -0.301140E-02
     19178 MEMB     155      PYPG     H11B     HAL2     0.900000E-01   1.00800           0   0.00000     -0.301140E-02
     19179 MEMB     155      PYPG     P        PL        1.50000       30.9740           0   0.00000     -0.301140E-02
     19180 MEMB     155      PYPG     O13      O2L     -0.780000       15.9994           0   0.00000     -0.301140E-02
     19181 MEMB     155      PYPG     O14      O2L     -0.780000       15.9994           0   0.00000     -0.301140E-02
     19182 MEMB     155      PYPG     O11      OSLP    -0.570000       15.9994           0   0.00000     -0.301140E-02
     19183 MEMB     155      PYPG     O12      OSLP    -0.570000       15.9994           0   0.00000     -0.301140E-02
     19184 MEMB     155      PYPG     C1       CTL2    -0.800000E-01   12.0110           0   0.00000     -0.301140E-02
     19185 MEMB     155      PYPG     HA       HAL2     0.900000E-01   1.00800           0   0.00000     -0.301140E-02
     19186 MEMB     155      PYPG     HB       HAL2     0.900000E-01   1.00800           0   0.00000     -0.301140E-02
     19187 MEMB     155      PYPG     C2       CTL1     0.170000       12.0110           0   0.00000     -0.301140E-02
     19188 MEMB     155      PYPG     HS       HAL1     0.900000E-01   1.00800           0   0.00000     -0.301140E-02
     19189 MEMB     155      PYPG     O21      OSL     -0.490000       15.9994           0   0.00000     -0.301140E-02
     19190 MEMB     155      PYPG     C21      CL       0.900000       12.0110           0   0.00000     -0.301140E-02
     19191 MEMB     155      PYPG     O22      OBL     -0.630000       15.9994           0   0.00000     -0.301140E-02
     19192 MEMB     155      PYPG     C22      CTL2    -0.220000       12.0110           0   0.00000     -0.301140E-02
     19193 MEMB     155      PYPG     H2R      HAL2     0.900000E-01   1.00800           0   0.00000     -0.301140E-02
     19194 MEMB     155      PYPG     H2S      HAL2     0.900000E-01   1.00800           0   0.00000     -0.301140E-02
     19195 MEMB     155      PYPG     C3       CTL2     0.800000E-01   12.0110           0   0.00000     -0.301140E-02
     19196 MEMB     155      PYPG     HX       HAL2     0.900000E-01   1.00800           0   0.00000     -0.301140E-02
     19197 MEMB     155      PYPG     HY       HAL2     0.900000E-01   1.00800           0   0.00000     -0.301140E-02
     19198 MEMB     155      PYPG     O31      OSL     -0.490000       15.9994           0   0.00000     -0.301140E-02
     19199 MEMB     155      PYPG     C31      CL       0.900000       12.0110           0   0.00000     -0.301140E-02
     19200 MEMB     155      PYPG     O32      OBL     -0.630000       15.9994           0   0.00000     -0.301140E-02
     19201 MEMB     155      PYPG     C32      CTL2    -0.220000       12.0110           0   0.00000     -0.301140E-02
     19202 MEMB     155      PYPG     H2X      HAL2     0.900000E-01   1.00800           0   0.00000     -0.301140E-02
     19203 MEMB     155      PYPG     H2Y      HAL2     0.900000E-01   1.00800           0   0.00000     -0.301140E-02
     19204 MEMB     155      PYPG     C23      CTL2    -0.180000       12.0110           0   0.00000     -0.301140E-02
     19205 MEMB     155      PYPG     H3R      HAL2     0.900000E-01   1.00800           0   0.00000     -0.301140E-02
     19206 MEMB     155      PYPG     H3S      HAL2     0.900000E-01   1.00800           0   0.00000     -0.301140E-02
     19207 MEMB     155      PYPG     C24      CTL2    -0.180000       12.0110           0   0.00000     -0.301140E-02
     19208 MEMB     155      PYPG     H4R      HAL2     0.900000E-01   1.00800           0   0.00000     -0.301140E-02
     19209 MEMB     155      PYPG     H4S      HAL2     0.900000E-01   1.00800           0   0.00000     -0.301140E-02
     19210 MEMB     155      PYPG     C25      CTL2    -0.180000       12.0110           0   0.00000     -0.301140E-02
     19211 MEMB     155      PYPG     H5R      HAL2     0.900000E-01   1.00800           0   0.00000     -0.301140E-02
     19212 MEMB     155      PYPG     H5S      HAL2     0.900000E-01   1.00800           0   0.00000     -0.301140E-02
     19213 MEMB     155      PYPG     C26      CTL2    -0.180000       12.0110           0   0.00000     -0.301140E-02
     19214 MEMB     155      PYPG     H6R      HAL2     0.900000E-01   1.00800           0   0.00000     -0.301140E-02
     19215 MEMB     155      PYPG     H6S      HAL2     0.900000E-01   1.00800           0   0.00000     -0.301140E-02
     19216 MEMB     155      PYPG     C27      CTL2    -0.180000       12.0110           0   0.00000     -0.301140E-02
     19217 MEMB     155      PYPG     H7R      HAL2     0.900000E-01   1.00800           0   0.00000     -0.301140E-02
     19218 MEMB     155      PYPG     H7S      HAL2     0.900000E-01   1.00800           0   0.00000     -0.301140E-02
     19219 MEMB     155      PYPG     C28      CTL2    -0.180000       12.0110           0   0.00000     -0.301140E-02
     19220 MEMB     155      PYPG     H8R      HAL2     0.900000E-01   1.00800           0   0.00000     -0.301140E-02
     19221 MEMB     155      PYPG     H8S      HAL2     0.900000E-01   1.00800           0   0.00000     -0.301140E-02
     19222 MEMB     155      PYPG     C29      CEL1    -0.150000       12.0110           0   0.00000     -0.301140E-02
     19223 MEMB     155      PYPG     H9R      HEL1     0.150000       1.00800           0   0.00000     -0.301140E-02
     19224 MEMB     155      PYPG     C210     CEL1    -0.150000       12.0110           0   0.00000     -0.301140E-02
     19225 MEMB     155      PYPG     H10R     HEL1     0.150000       1.00800           0   0.00000     -0.301140E-02
     19226 MEMB     155      PYPG     C211     CTL2    -0.180000       12.0110           0   0.00000     -0.301140E-02
     19227 MEMB     155      PYPG     H11R     HAL2     0.900000E-01   1.00800           0   0.00000     -0.301140E-02
     19228 MEMB     155      PYPG     H11S     HAL2     0.900000E-01   1.00800           0   0.00000     -0.301140E-02
     19229 MEMB     155      PYPG     C212     CTL2    -0.180000       12.0110           0   0.00000     -0.301140E-02
     19230 MEMB     155      PYPG     H12R     HAL2     0.900000E-01   1.00800           0   0.00000     -0.301140E-02
     19231 MEMB     155      PYPG     H12S     HAL2     0.900000E-01   1.00800           0   0.00000     -0.301140E-02
     19232 MEMB     155      PYPG     C213     CTL2    -0.180000       12.0110           0   0.00000     -0.301140E-02
     19233 MEMB     155      PYPG     H13R     HAL2     0.900000E-01   1.00800           0   0.00000     -0.301140E-02
     19234 MEMB     155      PYPG     H13S     HAL2     0.900000E-01   1.00800           0   0.00000     -0.301140E-02
     19235 MEMB     155      PYPG     C214     CTL2    -0.180000       12.0110           0   0.00000     -0.301140E-02
     19236 MEMB     155      PYPG     H14R     HAL2     0.900000E-01   1.00800           0   0.00000     -0.301140E-02
     19237 MEMB     155      PYPG     H14S     HAL2     0.900000E-01   1.00800           0   0.00000     -0.301140E-02
     19238 MEMB     155      PYPG     C215     CTL2    -0.180000       12.0110           0   0.00000     -0.301140E-02
     19239 MEMB     155      PYPG     H15R     HAL2     0.900000E-01   1.00800           0   0.00000     -0.301140E-02
     19240 MEMB     155      PYPG     H15S     HAL2     0.900000E-01   1.00800           0   0.00000     -0.301140E-02
     19241 MEMB     155      PYPG     C216     CTL3    -0.270000       12.0110           0   0.00000     -0.301140E-02
     19242 MEMB     155      PYPG     H16R     HAL3     0.900000E-01   1.00800           0   0.00000     -0.301140E-02
     19243 MEMB     155      PYPG     H16S     HAL3     0.900000E-01   1.00800           0   0.00000     -0.301140E-02
     19244 MEMB     155      PYPG     H16T     HAL3     0.900000E-01   1.00800           0   0.00000     -0.301140E-02
     19245 MEMB     155      PYPG     C33      CTL2    -0.180000       12.0110           0   0.00000     -0.301140E-02
     19246 MEMB     155      PYPG     H3X      HAL2     0.900000E-01   1.00800           0   0.00000     -0.301140E-02
     19247 MEMB     155      PYPG     H3Y      HAL2     0.900000E-01   1.00800           0   0.00000     -0.301140E-02
     19248 MEMB     155      PYPG     C34      CTL2    -0.180000       12.0110           0   0.00000     -0.301140E-02
     19249 MEMB     155      PYPG     H4X      HAL2     0.900000E-01   1.00800           0   0.00000     -0.301140E-02
     19250 MEMB     155      PYPG     H4Y      HAL2     0.900000E-01   1.00800           0   0.00000     -0.301140E-02
     19251 MEMB     155      PYPG     C35      CTL2    -0.180000       12.0110           0   0.00000     -0.301140E-02
     19252 MEMB     155      PYPG     H5X      HAL2     0.900000E-01   1.00800           0   0.00000     -0.301140E-02
     19253 MEMB     155      PYPG     H5Y      HAL2     0.900000E-01   1.00800           0   0.00000     -0.301140E-02
     19254 MEMB     155      PYPG     C36      CTL2    -0.180000       12.0110           0   0.00000     -0.301140E-02
     19255 MEMB     155      PYPG     H6X      HAL2     0.900000E-01   1.00800           0   0.00000     -0.301140E-02
     19256 MEMB     155      PYPG     H6Y      HAL2     0.900000E-01   1.00800           0   0.00000     -0.301140E-02
     19257 MEMB     155      PYPG     C37      CTL2    -0.180000       12.0110           0   0.00000     -0.301140E-02
     19258 MEMB     155      PYPG     H7X      HAL2     0.900000E-01   1.00800           0   0.00000     -0.301140E-02
     19259 MEMB     155      PYPG     H7Y      HAL2     0.900000E-01   1.00800           0   0.00000     -0.301140E-02
     19260 MEMB     155      PYPG     C38      CTL2    -0.180000       12.0110           0   0.00000     -0.301140E-02
     19261 MEMB     155      PYPG     H8X      HAL2     0.900000E-01   1.00800           0   0.00000     -0.301140E-02
     19262 MEMB     155      PYPG     H8Y      HAL2     0.900000E-01   1.00800           0   0.00000     -0.301140E-02
     19263 MEMB     155      PYPG     C39      CTL2    -0.180000       12.0110           0   0.00000     -0.301140E-02
     19264 MEMB     155      PYPG     H9X      HAL2     0.900000E-01   1.00800           0   0.00000     -0.301140E-02
     19265 MEMB     155      PYPG     H9Y      HAL2     0.900000E-01   1.00800           0   0.00000     -0.301140E-02
     19266 MEMB     155      PYPG     C310     CTL2    -0.180000       12.0110           0   0.00000     -0.301140E-02
     19267 MEMB     155      PYPG     H10X     HAL2     0.900000E-01   1.00800           0   0.00000     -0.301140E-02
     19268 MEMB     155      PYPG     H10Y     HAL2     0.900000E-01   1.00800           0   0.00000     -0.301140E-02
     19269 MEMB     155      PYPG     C311     CTL2    -0.180000       12.0110           0   0.00000     -0.301140E-02
     19270 MEMB     155      PYPG     H11X     HAL2     0.900000E-01   1.00800           0   0.00000     -0.301140E-02
     19271 MEMB     155      PYPG     H11Y     HAL2     0.900000E-01   1.00800           0   0.00000     -0.301140E-02
     19272 MEMB     155      PYPG     C312     CTL2    -0.180000       12.0110           0   0.00000     -0.301140E-02
     19273 MEMB     155      PYPG     H12X     HAL2     0.900000E-01   1.00800           0   0.00000     -0.301140E-02
     19274 MEMB     155      PYPG     H12Y     HAL2     0.900000E-01   1.00800           0   0.00000     -0.301140E-02
     19275 MEMB     155      PYPG     C313     CTL2    -0.180000       12.0110           0   0.00000     -0.301140E-02
     19276 MEMB     155      PYPG     H13X     HAL2     0.900000E-01   1.00800           0   0.00000     -0.301140E-02
     19277 MEMB     155      PYPG     H13Y     HAL2     0.900000E-01   1.00800           0   0.00000     -0.301140E-02
     19278 MEMB     155      PYPG     C314     CTL2    -0.180000       12.0110           0   0.00000     -0.301140E-02
     19279 MEMB     155      PYPG     H14X     HAL2     0.900000E-01   1.00800           0   0.00000     -0.301140E-02
     19280 MEMB     155      PYPG     H14Y     HAL2     0.900000E-01   1.00800           0   0.00000     -0.301140E-02
     19281 MEMB     155      PYPG     C315     CTL2    -0.180000       12.0110           0   0.00000     -0.301140E-02
     19282 MEMB     155      PYPG     H15X     HAL2     0.900000E-01   1.00800           0   0.00000     -0.301140E-02
     19283 MEMB     155      PYPG     H15Y     HAL2     0.900000E-01   1.00800           0   0.00000     -0.301140E-02
     19284 MEMB     155      PYPG     C316     CTL3    -0.270000       12.0110           0   0.00000     -0.301140E-02
     19285 MEMB     155      PYPG     H16X     HAL3     0.900000E-01   1.00800           0   0.00000     -0.301140E-02
     19286 MEMB     155      PYPG     H16Y     HAL3     0.900000E-01   1.00800           0   0.00000     -0.301140E-02
     19287 MEMB     155      PYPG     H16Z     HAL3     0.900000E-01   1.00800           0   0.00000     -0.301140E-02
     19288 MEMB     156      PMPE     N        NH3L    -0.300000       14.0070           0   0.00000     -0.301140E-02
     19289 MEMB     156      PMPE     HN1      HCL      0.330000       1.00800           0   0.00000     -0.301140E-02
     19290 MEMB     156      PMPE     HN2      HCL      0.330000       1.00800           0   0.00000     -0.301140E-02
     19291 MEMB     156      PMPE     HN3      HCL      0.330000       1.00800           0   0.00000     -0.301140E-02
     19292 MEMB     156      PMPE     C12      CTL2     0.130000       12.0110           0   0.00000     -0.301140E-02
     19293 MEMB     156      PMPE     H12A     HAL2     0.900000E-01   1.00800           0   0.00000     -0.301140E-02
     19294 MEMB     156      PMPE     H12B     HAL2     0.900000E-01   1.00800           0   0.00000     -0.301140E-02
     19295 MEMB     156      PMPE     C11      CTL2    -0.800000E-01   12.0110           0   0.00000     -0.301140E-02
     19296 MEMB     156      PMPE     H11A     HAL2     0.900000E-01   1.00800           0   0.00000     -0.301140E-02
     19297 MEMB     156      PMPE     H11B     HAL2     0.900000E-01   1.00800           0   0.00000     -0.301140E-02
     19298 MEMB     156      PMPE     P        PL        1.50000       30.9740           0   0.00000     -0.301140E-02
     19299 MEMB     156      PMPE     O13      O2L     -0.780000       15.9994           0   0.00000     -0.301140E-02
     19300 MEMB     156      PMPE     O14      O2L     -0.780000       15.9994           0   0.00000     -0.301140E-02
     19301 MEMB     156      PMPE     O11      OSLP    -0.570000       15.9994           0   0.00000     -0.301140E-02
     19302 MEMB     156      PMPE     O12      OSLP    -0.570000       15.9994           0   0.00000     -0.301140E-02
     19303 MEMB     156      PMPE     C1       CTL2    -0.800000E-01   12.0110           0   0.00000     -0.301140E-02
     19304 MEMB     156      PMPE     HA       HAL2     0.900000E-01   1.00800           0   0.00000     -0.301140E-02
     19305 MEMB     156      PMPE     HB       HAL2     0.900000E-01   1.00800           0   0.00000     -0.301140E-02
     19306 MEMB     156      PMPE     C2       CTL1     0.170000       12.0110           0   0.00000     -0.301140E-02
     19307 MEMB     156      PMPE     HS       HAL1     0.900000E-01   1.00800           0   0.00000     -0.301140E-02
     19308 MEMB     156      PMPE     O21      OSL     -0.490000       15.9994           0   0.00000     -0.301140E-02
     19309 MEMB     156      PMPE     C21      CL       0.900000       12.0110           0   0.00000     -0.301140E-02
     19310 MEMB     156      PMPE     O22      OBL     -0.630000       15.9994           0   0.00000     -0.301140E-02
     19311 MEMB     156      PMPE     C22      CTL2    -0.220000       12.0110           0   0.00000     -0.301140E-02
     19312 MEMB     156      PMPE     H2R      HAL2     0.900000E-01   1.00800           0   0.00000     -0.301140E-02
     19313 MEMB     156      PMPE     H2S      HAL2     0.900000E-01   1.00800           0   0.00000     -0.301140E-02
     19314 MEMB     156      PMPE     C3       CTL2     0.800000E-01   12.0110           0   0.00000     -0.301140E-02
     19315 MEMB     156      PMPE     HX       HAL2     0.900000E-01   1.00800           0   0.00000     -0.301140E-02
     19316 MEMB     156      PMPE     HY       HAL2     0.900000E-01   1.00800           0   0.00000     -0.301140E-02
     19317 MEMB     156      PMPE     O31      OSL     -0.490000       15.9994           0   0.00000     -0.301140E-02
     19318 MEMB     156      PMPE     C31      CL       0.900000       12.0110           0   0.00000     -0.301140E-02
     19319 MEMB     156      PMPE     O32      OBL     -0.630000       15.9994           0   0.00000     -0.301140E-02
     19320 MEMB     156      PMPE     C32      CTL2    -0.220000       12.0110           0   0.00000     -0.301140E-02
     19321 MEMB     156      PMPE     H2X      HAL2     0.900000E-01   1.00800           0   0.00000     -0.301140E-02
     19322 MEMB     156      PMPE     H2Y      HAL2     0.900000E-01   1.00800           0   0.00000     -0.301140E-02
     19323 MEMB     156      PMPE     C23      CTL2    -0.180000       12.0110           0   0.00000     -0.301140E-02
     19324 MEMB     156      PMPE     H3R      HAL2     0.900000E-01   1.00800           0   0.00000     -0.301140E-02
     19325 MEMB     156      PMPE     H3S      HAL2     0.900000E-01   1.00800           0   0.00000     -0.301140E-02
     19326 MEMB     156      PMPE     C24      CTL2    -0.180000       12.0110           0   0.00000     -0.301140E-02
     19327 MEMB     156      PMPE     H4R      HAL2     0.900000E-01   1.00800           0   0.00000     -0.301140E-02
     19328 MEMB     156      PMPE     H4S      HAL2     0.900000E-01   1.00800           0   0.00000     -0.301140E-02
     19329 MEMB     156      PMPE     C25      CTL2    -0.180000       12.0110           0   0.00000     -0.301140E-02
     19330 MEMB     156      PMPE     H5R      HAL2     0.900000E-01   1.00800           0   0.00000     -0.301140E-02
     19331 MEMB     156      PMPE     H5S      HAL2     0.900000E-01   1.00800           0   0.00000     -0.301140E-02
     19332 MEMB     156      PMPE     C26      CTL2    -0.180000       12.0110           0   0.00000     -0.301140E-02
     19333 MEMB     156      PMPE     H6R      HAL2     0.900000E-01   1.00800           0   0.00000     -0.301140E-02
     19334 MEMB     156      PMPE     H6S      HAL2     0.900000E-01   1.00800           0   0.00000     -0.301140E-02
     19335 MEMB     156      PMPE     C27      CTL2    -0.180000       12.0110           0   0.00000     -0.301140E-02
     19336 MEMB     156      PMPE     H7R      HAL2     0.900000E-01   1.00800           0   0.00000     -0.301140E-02
     19337 MEMB     156      PMPE     H7S      HAL2     0.900000E-01   1.00800           0   0.00000     -0.301140E-02
     19338 MEMB     156      PMPE     C28      CTL2    -0.180000       12.0110           0   0.00000     -0.301140E-02
     19339 MEMB     156      PMPE     H8R      HAL2     0.900000E-01   1.00800           0   0.00000     -0.301140E-02
     19340 MEMB     156      PMPE     H8S      HAL2     0.900000E-01   1.00800           0   0.00000     -0.301140E-02
     19341 MEMB     156      PMPE     C29      CG3RC1  -0.900000E-01   12.0110           0   0.00000     -0.301140E-02
     19342 MEMB     156      PMPE     H9R      HGA1     0.900000E-01   1.00800           0   0.00000     -0.301140E-02
     19343 MEMB     156      PMPE     C217     CG3C31  -0.180000       12.0110           0   0.00000     -0.301140E-02
     19344 MEMB     156      PMPE     H17R     HGA2     0.900000E-01   1.00800           0   0.00000     -0.301140E-02
     19345 MEMB     156      PMPE     H17S     HGA2     0.900000E-01   1.00800           0   0.00000     -0.301140E-02
     19346 MEMB     156      PMPE     C210     CG3RC1  -0.900000E-01   12.0110           0   0.00000     -0.301140E-02
     19347 MEMB     156      PMPE     H10R     HGA1     0.900000E-01   1.00800           0   0.00000     -0.301140E-02
     19348 MEMB     156      PMPE     C211     CTL2    -0.180000       12.0110           0   0.00000     -0.301140E-02
     19349 MEMB     156      PMPE     H11R     HAL2     0.900000E-01   1.00800           0   0.00000     -0.301140E-02
     19350 MEMB     156      PMPE     H11S     HAL2     0.900000E-01   1.00800           0   0.00000     -0.301140E-02
     19351 MEMB     156      PMPE     C212     CTL2    -0.180000       12.0110           0   0.00000     -0.301140E-02
     19352 MEMB     156      PMPE     H12R     HAL2     0.900000E-01   1.00800           0   0.00000     -0.301140E-02
     19353 MEMB     156      PMPE     H12S     HAL2     0.900000E-01   1.00800           0   0.00000     -0.301140E-02
     19354 MEMB     156      PMPE     C213     CTL2    -0.180000       12.0110           0   0.00000     -0.301140E-02
     19355 MEMB     156      PMPE     H13R     HAL2     0.900000E-01   1.00800           0   0.00000     -0.301140E-02
     19356 MEMB     156      PMPE     H13S     HAL2     0.900000E-01   1.00800           0   0.00000     -0.301140E-02
     19357 MEMB     156      PMPE     C214     CTL2    -0.180000       12.0110           0   0.00000     -0.301140E-02
     19358 MEMB     156      PMPE     H14R     HAL2     0.900000E-01   1.00800           0   0.00000     -0.301140E-02
     19359 MEMB     156      PMPE     H14S     HAL2     0.900000E-01   1.00800           0   0.00000     -0.301140E-02
     19360 MEMB     156      PMPE     C215     CTL2    -0.180000       12.0110           0   0.00000     -0.301140E-02
     19361 MEMB     156      PMPE     H15R     HAL2     0.900000E-01   1.00800           0   0.00000     -0.301140E-02
     19362 MEMB     156      PMPE     H15S     HAL2     0.900000E-01   1.00800           0   0.00000     -0.301140E-02
     19363 MEMB     156      PMPE     C216     CTL3    -0.270000       12.0110           0   0.00000     -0.301140E-02
     19364 MEMB     156      PMPE     H16R     HAL3     0.900000E-01   1.00800           0   0.00000     -0.301140E-02
     19365 MEMB     156      PMPE     H16S     HAL3     0.900000E-01   1.00800           0   0.00000     -0.301140E-02
     19366 MEMB     156      PMPE     H16T     HAL3     0.900000E-01   1.00800           0   0.00000     -0.301140E-02
     19367 MEMB     156      PMPE     C33      CTL2    -0.180000       12.0110           0   0.00000     -0.301140E-02
     19368 MEMB     156      PMPE     H3X      HAL2     0.900000E-01   1.00800           0   0.00000     -0.301140E-02
     19369 MEMB     156      PMPE     H3Y      HAL2     0.900000E-01   1.00800           0   0.00000     -0.301140E-02
     19370 MEMB     156      PMPE     C34      CTL2    -0.180000       12.0110           0   0.00000     -0.301140E-02
     19371 MEMB     156      PMPE     H4X      HAL2     0.900000E-01   1.00800           0   0.00000     -0.301140E-02
     19372 MEMB     156      PMPE     H4Y      HAL2     0.900000E-01   1.00800           0   0.00000     -0.301140E-02
     19373 MEMB     156      PMPE     C35      CTL2    -0.180000       12.0110           0   0.00000     -0.301140E-02
     19374 MEMB     156      PMPE     H5X      HAL2     0.900000E-01   1.00800           0   0.00000     -0.301140E-02
     19375 MEMB     156      PMPE     H5Y      HAL2     0.900000E-01   1.00800           0   0.00000     -0.301140E-02
     19376 MEMB     156      PMPE     C36      CTL2    -0.180000       12.0110           0   0.00000     -0.301140E-02
     19377 MEMB     156      PMPE     H6X      HAL2     0.900000E-01   1.00800           0   0.00000     -0.301140E-02
     19378 MEMB     156      PMPE     H6Y      HAL2     0.900000E-01   1.00800           0   0.00000     -0.301140E-02
     19379 MEMB     156      PMPE     C37      CTL2    -0.180000       12.0110           0   0.00000     -0.301140E-02
     19380 MEMB     156      PMPE     H7X      HAL2     0.900000E-01   1.00800           0   0.00000     -0.301140E-02
     19381 MEMB     156      PMPE     H7Y      HAL2     0.900000E-01   1.00800           0   0.00000     -0.301140E-02
     19382 MEMB     156      PMPE     C38      CTL2    -0.180000       12.0110           0   0.00000     -0.301140E-02
     19383 MEMB     156      PMPE     H8X      HAL2     0.900000E-01   1.00800           0   0.00000     -0.301140E-02
     19384 MEMB     156      PMPE     H8Y      HAL2     0.900000E-01   1.00800           0   0.00000     -0.301140E-02
     19385 MEMB     156      PMPE     C39      CTL2    -0.180000       12.0110           0   0.00000     -0.301140E-02
     19386 MEMB     156      PMPE     H9X      HAL2     0.900000E-01   1.00800           0   0.00000     -0.301140E-02
     19387 MEMB     156      PMPE     H9Y      HAL2     0.900000E-01   1.00800           0   0.00000     -0.301140E-02
     19388 MEMB     156      PMPE     C310     CTL2    -0.180000       12.0110           0   0.00000     -0.301140E-02
     19389 MEMB     156      PMPE     H10X     HAL2     0.900000E-01   1.00800           0   0.00000     -0.301140E-02
     19390 MEMB     156      PMPE     H10Y     HAL2     0.900000E-01   1.00800           0   0.00000     -0.301140E-02
     19391 MEMB     156      PMPE     C311     CTL2    -0.180000       12.0110           0   0.00000     -0.301140E-02
     19392 MEMB     156      PMPE     H11X     HAL2     0.900000E-01   1.00800           0   0.00000     -0.301140E-02
     19393 MEMB     156      PMPE     H11Y     HAL2     0.900000E-01   1.00800           0   0.00000     -0.301140E-02
     19394 MEMB     156      PMPE     C312     CTL2    -0.180000       12.0110           0   0.00000     -0.301140E-02
     19395 MEMB     156      PMPE     H12X     HAL2     0.900000E-01   1.00800           0   0.00000     -0.301140E-02
     19396 MEMB     156      PMPE     H12Y     HAL2     0.900000E-01   1.00800           0   0.00000     -0.301140E-02
     19397 MEMB     156      PMPE     C313     CTL2    -0.180000       12.0110           0   0.00000     -0.301140E-02
     19398 MEMB     156      PMPE     H13X     HAL2     0.900000E-01   1.00800           0   0.00000     -0.301140E-02
     19399 MEMB     156      PMPE     H13Y     HAL2     0.900000E-01   1.00800           0   0.00000     -0.301140E-02
     19400 MEMB     156      PMPE     C314     CTL2    -0.180000       12.0110           0   0.00000     -0.301140E-02
     19401 MEMB     156      PMPE     H14X     HAL2     0.900000E-01   1.00800           0   0.00000     -0.301140E-02
     19402 MEMB     156      PMPE     H14Y     HAL2     0.900000E-01   1.00800           0   0.00000     -0.301140E-02
     19403 MEMB     156      PMPE     C315     CTL2    -0.180000       12.0110           0   0.00000     -0.301140E-02
     19404 MEMB     156      PMPE     H15X     HAL2     0.900000E-01   1.00800           0   0.00000     -0.301140E-02
     19405 MEMB     156      PMPE     H15Y     HAL2     0.900000E-01   1.00800           0   0.00000     -0.301140E-02
     19406 MEMB     156      PMPE     C316     CTL3    -0.270000       12.0110           0   0.00000     -0.301140E-02
     19407 MEMB     156      PMPE     H16X     HAL3     0.900000E-01   1.00800           0   0.00000     -0.301140E-02
     19408 MEMB     156      PMPE     H16Y     HAL3     0.900000E-01   1.00800           0   0.00000     -0.301140E-02
     19409 MEMB     156      PMPE     H16Z     HAL3     0.900000E-01   1.00800           0   0.00000     -0.301140E-02
     19410 MEMB     157      PMPE     N        NH3L    -0.300000       14.0070           0   0.00000     -0.301140E-02
     19411 MEMB     157      PMPE     HN1      HCL      0.330000       1.00800           0   0.00000     -0.301140E-02
     19412 MEMB     157      PMPE     HN2      HCL      0.330000       1.00800           0   0.00000     -0.301140E-02
     19413 MEMB     157      PMPE     HN3      HCL      0.330000       1.00800           0   0.00000     -0.301140E-02
     19414 MEMB     157      PMPE     C12      CTL2     0.130000       12.0110           0   0.00000     -0.301140E-02
     19415 MEMB     157      PMPE     H12A     HAL2     0.900000E-01   1.00800           0   0.00000     -0.301140E-02
     19416 MEMB     157      PMPE     H12B     HAL2     0.900000E-01   1.00800           0   0.00000     -0.301140E-02
     19417 MEMB     157      PMPE     C11      CTL2    -0.800000E-01   12.0110           0   0.00000     -0.301140E-02
     19418 MEMB     157      PMPE     H11A     HAL2     0.900000E-01   1.00800           0   0.00000     -0.301140E-02
     19419 MEMB     157      PMPE     H11B     HAL2     0.900000E-01   1.00800           0   0.00000     -0.301140E-02
     19420 MEMB     157      PMPE     P        PL        1.50000       30.9740           0   0.00000     -0.301140E-02
     19421 MEMB     157      PMPE     O13      O2L     -0.780000       15.9994           0   0.00000     -0.301140E-02
     19422 MEMB     157      PMPE     O14      O2L     -0.780000       15.9994           0   0.00000     -0.301140E-02
     19423 MEMB     157      PMPE     O11      OSLP    -0.570000       15.9994           0   0.00000     -0.301140E-02
     19424 MEMB     157      PMPE     O12      OSLP    -0.570000       15.9994           0   0.00000     -0.301140E-02
     19425 MEMB     157      PMPE     C1       CTL2    -0.800000E-01   12.0110           0   0.00000     -0.301140E-02
     19426 MEMB     157      PMPE     HA       HAL2     0.900000E-01   1.00800           0   0.00000     -0.301140E-02
     19427 MEMB     157      PMPE     HB       HAL2     0.900000E-01   1.00800           0   0.00000     -0.301140E-02
     19428 MEMB     157      PMPE     C2       CTL1     0.170000       12.0110           0   0.00000     -0.301140E-02
     19429 MEMB     157      PMPE     HS       HAL1     0.900000E-01   1.00800           0   0.00000     -0.301140E-02
     19430 MEMB     157      PMPE     O21      OSL     -0.490000       15.9994           0   0.00000     -0.301140E-02
     19431 MEMB     157      PMPE     C21      CL       0.900000       12.0110           0   0.00000     -0.301140E-02
     19432 MEMB     157      PMPE     O22      OBL     -0.630000       15.9994           0   0.00000     -0.301140E-02
     19433 MEMB     157      PMPE     C22      CTL2    -0.220000       12.0110           0   0.00000     -0.301140E-02
     19434 MEMB     157      PMPE     H2R      HAL2     0.900000E-01   1.00800           0   0.00000     -0.301140E-02
     19435 MEMB     157      PMPE     H2S      HAL2     0.900000E-01   1.00800           0   0.00000     -0.301140E-02
     19436 MEMB     157      PMPE     C3       CTL2     0.800000E-01   12.0110           0   0.00000     -0.301140E-02
     19437 MEMB     157      PMPE     HX       HAL2     0.900000E-01   1.00800           0   0.00000     -0.301140E-02
     19438 MEMB     157      PMPE     HY       HAL2     0.900000E-01   1.00800           0   0.00000     -0.301140E-02
     19439 MEMB     157      PMPE     O31      OSL     -0.490000       15.9994           0   0.00000     -0.301140E-02
     19440 MEMB     157      PMPE     C31      CL       0.900000       12.0110           0   0.00000     -0.301140E-02
     19441 MEMB     157      PMPE     O32      OBL     -0.630000       15.9994           0   0.00000     -0.301140E-02
     19442 MEMB     157      PMPE     C32      CTL2    -0.220000       12.0110           0   0.00000     -0.301140E-02
     19443 MEMB     157      PMPE     H2X      HAL2     0.900000E-01   1.00800           0   0.00000     -0.301140E-02
     19444 MEMB     157      PMPE     H2Y      HAL2     0.900000E-01   1.00800           0   0.00000     -0.301140E-02
     19445 MEMB     157      PMPE     C23      CTL2    -0.180000       12.0110           0   0.00000     -0.301140E-02
     19446 MEMB     157      PMPE     H3R      HAL2     0.900000E-01   1.00800           0   0.00000     -0.301140E-02
     19447 MEMB     157      PMPE     H3S      HAL2     0.900000E-01   1.00800           0   0.00000     -0.301140E-02
     19448 MEMB     157      PMPE     C24      CTL2    -0.180000       12.0110           0   0.00000     -0.301140E-02
     19449 MEMB     157      PMPE     H4R      HAL2     0.900000E-01   1.00800           0   0.00000     -0.301140E-02
     19450 MEMB     157      PMPE     H4S      HAL2     0.900000E-01   1.00800           0   0.00000     -0.301140E-02
     19451 MEMB     157      PMPE     C25      CTL2    -0.180000       12.0110           0   0.00000     -0.301140E-02
     19452 MEMB     157      PMPE     H5R      HAL2     0.900000E-01   1.00800           0   0.00000     -0.301140E-02
     19453 MEMB     157      PMPE     H5S      HAL2     0.900000E-01   1.00800           0   0.00000     -0.301140E-02
     19454 MEMB     157      PMPE     C26      CTL2    -0.180000       12.0110           0   0.00000     -0.301140E-02
     19455 MEMB     157      PMPE     H6R      HAL2     0.900000E-01   1.00800           0   0.00000     -0.301140E-02
     19456 MEMB     157      PMPE     H6S      HAL2     0.900000E-01   1.00800           0   0.00000     -0.301140E-02
     19457 MEMB     157      PMPE     C27      CTL2    -0.180000       12.0110           0   0.00000     -0.301140E-02
     19458 MEMB     157      PMPE     H7R      HAL2     0.900000E-01   1.00800           0   0.00000     -0.301140E-02
     19459 MEMB     157      PMPE     H7S      HAL2     0.900000E-01   1.00800           0   0.00000     -0.301140E-02
     19460 MEMB     157      PMPE     C28      CTL2    -0.180000       12.0110           0   0.00000     -0.301140E-02
     19461 MEMB     157      PMPE     H8R      HAL2     0.900000E-01   1.00800           0   0.00000     -0.301140E-02
     19462 MEMB     157      PMPE     H8S      HAL2     0.900000E-01   1.00800           0   0.00000     -0.301140E-02
     19463 MEMB     157      PMPE     C29      CG3RC1  -0.900000E-01   12.0110           0   0.00000     -0.301140E-02
     19464 MEMB     157      PMPE     H9R      HGA1     0.900000E-01   1.00800           0   0.00000     -0.301140E-02
     19465 MEMB     157      PMPE     C217     CG3C31  -0.180000       12.0110           0   0.00000     -0.301140E-02
     19466 MEMB     157      PMPE     H17R     HGA2     0.900000E-01   1.00800           0   0.00000     -0.301140E-02
     19467 MEMB     157      PMPE     H17S     HGA2     0.900000E-01   1.00800           0   0.00000     -0.301140E-02
     19468 MEMB     157      PMPE     C210     CG3RC1  -0.900000E-01   12.0110           0   0.00000     -0.301140E-02
     19469 MEMB     157      PMPE     H10R     HGA1     0.900000E-01   1.00800           0   0.00000     -0.301140E-02
     19470 MEMB     157      PMPE     C211     CTL2    -0.180000       12.0110           0   0.00000     -0.301140E-02
     19471 MEMB     157      PMPE     H11R     HAL2     0.900000E-01   1.00800           0   0.00000     -0.301140E-02
     19472 MEMB     157      PMPE     H11S     HAL2     0.900000E-01   1.00800           0   0.00000     -0.301140E-02
     19473 MEMB     157      PMPE     C212     CTL2    -0.180000       12.0110           0   0.00000     -0.301140E-02
     19474 MEMB     157      PMPE     H12R     HAL2     0.900000E-01   1.00800           0   0.00000     -0.301140E-02
     19475 MEMB     157      PMPE     H12S     HAL2     0.900000E-01   1.00800           0   0.00000     -0.301140E-02
     19476 MEMB     157      PMPE     C213     CTL2    -0.180000       12.0110           0   0.00000     -0.301140E-02
     19477 MEMB     157      PMPE     H13R     HAL2     0.900000E-01   1.00800           0   0.00000     -0.301140E-02
     19478 MEMB     157      PMPE     H13S     HAL2     0.900000E-01   1.00800           0   0.00000     -0.301140E-02
     19479 MEMB     157      PMPE     C214     CTL2    -0.180000       12.0110           0   0.00000     -0.301140E-02
     19480 MEMB     157      PMPE     H14R     HAL2     0.900000E-01   1.00800           0   0.00000     -0.301140E-02
     19481 MEMB     157      PMPE     H14S     HAL2     0.900000E-01   1.00800           0   0.00000     -0.301140E-02
     19482 MEMB     157      PMPE     C215     CTL2    -0.180000       12.0110           0   0.00000     -0.301140E-02
     19483 MEMB     157      PMPE     H15R     HAL2     0.900000E-01   1.00800           0   0.00000     -0.301140E-02
     19484 MEMB     157      PMPE     H15S     HAL2     0.900000E-01   1.00800           0   0.00000     -0.301140E-02
     19485 MEMB     157      PMPE     C216     CTL3    -0.270000       12.0110           0   0.00000     -0.301140E-02
     19486 MEMB     157      PMPE     H16R     HAL3     0.900000E-01   1.00800           0   0.00000     -0.301140E-02
     19487 MEMB     157      PMPE     H16S     HAL3     0.900000E-01   1.00800           0   0.00000     -0.301140E-02
     19488 MEMB     157      PMPE     H16T     HAL3     0.900000E-01   1.00800           0   0.00000     -0.301140E-02
     19489 MEMB     157      PMPE     C33      CTL2    -0.180000       12.0110           0   0.00000     -0.301140E-02
     19490 MEMB     157      PMPE     H3X      HAL2     0.900000E-01   1.00800           0   0.00000     -0.301140E-02
     19491 MEMB     157      PMPE     H3Y      HAL2     0.900000E-01   1.00800           0   0.00000     -0.301140E-02
     19492 MEMB     157      PMPE     C34      CTL2    -0.180000       12.0110           0   0.00000     -0.301140E-02
     19493 MEMB     157      PMPE     H4X      HAL2     0.900000E-01   1.00800           0   0.00000     -0.301140E-02
     19494 MEMB     157      PMPE     H4Y      HAL2     0.900000E-01   1.00800           0   0.00000     -0.301140E-02
     19495 MEMB     157      PMPE     C35      CTL2    -0.180000       12.0110           0   0.00000     -0.301140E-02
     19496 MEMB     157      PMPE     H5X      HAL2     0.900000E-01   1.00800           0   0.00000     -0.301140E-02
     19497 MEMB     157      PMPE     H5Y      HAL2     0.900000E-01   1.00800           0   0.00000     -0.301140E-02
     19498 MEMB     157      PMPE     C36      CTL2    -0.180000       12.0110           0   0.00000     -0.301140E-02
     19499 MEMB     157      PMPE     H6X      HAL2     0.900000E-01   1.00800           0   0.00000     -0.301140E-02
     19500 MEMB     157      PMPE     H6Y      HAL2     0.900000E-01   1.00800           0   0.00000     -0.301140E-02
     19501 MEMB     157      PMPE     C37      CTL2    -0.180000       12.0110           0   0.00000     -0.301140E-02
     19502 MEMB     157      PMPE     H7X      HAL2     0.900000E-01   1.00800           0   0.00000     -0.301140E-02
     19503 MEMB     157      PMPE     H7Y      HAL2     0.900000E-01   1.00800           0   0.00000     -0.301140E-02
     19504 MEMB     157      PMPE     C38      CTL2    -0.180000       12.0110           0   0.00000     -0.301140E-02
     19505 MEMB     157      PMPE     H8X      HAL2     0.900000E-01   1.00800           0   0.00000     -0.301140E-02
     19506 MEMB     157      PMPE     H8Y      HAL2     0.900000E-01   1.00800           0   0.00000     -0.301140E-02
     19507 MEMB     157      PMPE     C39      CTL2    -0.180000       12.0110           0   0.00000     -0.301140E-02
     19508 MEMB     157      PMPE     H9X      HAL2     0.900000E-01   1.00800           0   0.00000     -0.301140E-02
     19509 MEMB     157      PMPE     H9Y      HAL2     0.900000E-01   1.00800           0   0.00000     -0.301140E-02
     19510 MEMB     157      PMPE     C310     CTL2    -0.180000       12.0110           0   0.00000     -0.301140E-02
     19511 MEMB     157      PMPE     H10X     HAL2     0.900000E-01   1.00800           0   0.00000     -0.301140E-02
     19512 MEMB     157      PMPE     H10Y     HAL2     0.900000E-01   1.00800           0   0.00000     -0.301140E-02
     19513 MEMB     157      PMPE     C311     CTL2    -0.180000       12.0110           0   0.00000     -0.301140E-02
     19514 MEMB     157      PMPE     H11X     HAL2     0.900000E-01   1.00800           0   0.00000     -0.301140E-02
     19515 MEMB     157      PMPE     H11Y     HAL2     0.900000E-01   1.00800           0   0.00000     -0.301140E-02
     19516 MEMB     157      PMPE     C312     CTL2    -0.180000       12.0110           0   0.00000     -0.301140E-02
     19517 MEMB     157      PMPE     H12X     HAL2     0.900000E-01   1.00800           0   0.00000     -0.301140E-02
     19518 MEMB     157      PMPE     H12Y     HAL2     0.900000E-01   1.00800           0   0.00000     -0.301140E-02
     19519 MEMB     157      PMPE     C313     CTL2    -0.180000       12.0110           0   0.00000     -0.301140E-02
     19520 MEMB     157      PMPE     H13X     HAL2     0.900000E-01   1.00800           0   0.00000     -0.301140E-02
     19521 MEMB     157      PMPE     H13Y     HAL2     0.900000E-01   1.00800           0   0.00000     -0.301140E-02
     19522 MEMB     157      PMPE     C314     CTL2    -0.180000       12.0110           0   0.00000     -0.301140E-02
     19523 MEMB     157      PMPE     H14X     HAL2     0.900000E-01   1.00800           0   0.00000     -0.301140E-02
     19524 MEMB     157      PMPE     H14Y     HAL2     0.900000E-01   1.00800           0   0.00000     -0.301140E-02
     19525 MEMB     157      PMPE     C315     CTL2    -0.180000       12.0110           0   0.00000     -0.301140E-02
     19526 MEMB     157      PMPE     H15X     HAL2     0.900000E-01   1.00800           0   0.00000     -0.301140E-02
     19527 MEMB     157      PMPE     H15Y     HAL2     0.900000E-01   1.00800           0   0.00000     -0.301140E-02
     19528 MEMB     157      PMPE     C316     CTL3    -0.270000       12.0110           0   0.00000     -0.301140E-02
     19529 MEMB     157      PMPE     H16X     HAL3     0.900000E-01   1.00800           0   0.00000     -0.301140E-02
     19530 MEMB     157      PMPE     H16Y     HAL3     0.900000E-01   1.00800           0   0.00000     -0.301140E-02
     19531 MEMB     157      PMPE     H16Z     HAL3     0.900000E-01   1.00800           0   0.00000     -0.301140E-02
     19532 MEMB     158      PMPE     N        NH3L    -0.300000       14.0070           0   0.00000     -0.301140E-02
     19533 MEMB     158      PMPE     HN1      HCL      0.330000       1.00800           0   0.00000     -0.301140E-02
     19534 MEMB     158      PMPE     HN2      HCL      0.330000       1.00800           0   0.00000     -0.301140E-02
     19535 MEMB     158      PMPE     HN3      HCL      0.330000       1.00800           0   0.00000     -0.301140E-02
     19536 MEMB     158      PMPE     C12      CTL2     0.130000       12.0110           0   0.00000     -0.301140E-02
     19537 MEMB     158      PMPE     H12A     HAL2     0.900000E-01   1.00800           0   0.00000     -0.301140E-02
     19538 MEMB     158      PMPE     H12B     HAL2     0.900000E-01   1.00800           0   0.00000     -0.301140E-02
     19539 MEMB     158      PMPE     C11      CTL2    -0.800000E-01   12.0110           0   0.00000     -0.301140E-02
     19540 MEMB     158      PMPE     H11A     HAL2     0.900000E-01   1.00800           0   0.00000     -0.301140E-02
     19541 MEMB     158      PMPE     H11B     HAL2     0.900000E-01   1.00800           0   0.00000     -0.301140E-02
     19542 MEMB     158      PMPE     P        PL        1.50000       30.9740           0   0.00000     -0.301140E-02
     19543 MEMB     158      PMPE     O13      O2L     -0.780000       15.9994           0   0.00000     -0.301140E-02
     19544 MEMB     158      PMPE     O14      O2L     -0.780000       15.9994           0   0.00000     -0.301140E-02
     19545 MEMB     158      PMPE     O11      OSLP    -0.570000       15.9994           0   0.00000     -0.301140E-02
     19546 MEMB     158      PMPE     O12      OSLP    -0.570000       15.9994           0   0.00000     -0.301140E-02
     19547 MEMB     158      PMPE     C1       CTL2    -0.800000E-01   12.0110           0   0.00000     -0.301140E-02
     19548 MEMB     158      PMPE     HA       HAL2     0.900000E-01   1.00800           0   0.00000     -0.301140E-02
     19549 MEMB     158      PMPE     HB       HAL2     0.900000E-01   1.00800           0   0.00000     -0.301140E-02
     19550 MEMB     158      PMPE     C2       CTL1     0.170000       12.0110           0   0.00000     -0.301140E-02
     19551 MEMB     158      PMPE     HS       HAL1     0.900000E-01   1.00800           0   0.00000     -0.301140E-02
     19552 MEMB     158      PMPE     O21      OSL     -0.490000       15.9994           0   0.00000     -0.301140E-02
     19553 MEMB     158      PMPE     C21      CL       0.900000       12.0110           0   0.00000     -0.301140E-02
     19554 MEMB     158      PMPE     O22      OBL     -0.630000       15.9994           0   0.00000     -0.301140E-02
     19555 MEMB     158      PMPE     C22      CTL2    -0.220000       12.0110           0   0.00000     -0.301140E-02
     19556 MEMB     158      PMPE     H2R      HAL2     0.900000E-01   1.00800           0   0.00000     -0.301140E-02
     19557 MEMB     158      PMPE     H2S      HAL2     0.900000E-01   1.00800           0   0.00000     -0.301140E-02
     19558 MEMB     158      PMPE     C3       CTL2     0.800000E-01   12.0110           0   0.00000     -0.301140E-02
     19559 MEMB     158      PMPE     HX       HAL2     0.900000E-01   1.00800           0   0.00000     -0.301140E-02
     19560 MEMB     158      PMPE     HY       HAL2     0.900000E-01   1.00800           0   0.00000     -0.301140E-02
     19561 MEMB     158      PMPE     O31      OSL     -0.490000       15.9994           0   0.00000     -0.301140E-02
     19562 MEMB     158      PMPE     C31      CL       0.900000       12.0110           0   0.00000     -0.301140E-02
     19563 MEMB     158      PMPE     O32      OBL     -0.630000       15.9994           0   0.00000     -0.301140E-02
     19564 MEMB     158      PMPE     C32      CTL2    -0.220000       12.0110           0   0.00000     -0.301140E-02
     19565 MEMB     158      PMPE     H2X      HAL2     0.900000E-01   1.00800           0   0.00000     -0.301140E-02
     19566 MEMB     158      PMPE     H2Y      HAL2     0.900000E-01   1.00800           0   0.00000     -0.301140E-02
     19567 MEMB     158      PMPE     C23      CTL2    -0.180000       12.0110           0   0.00000     -0.301140E-02
     19568 MEMB     158      PMPE     H3R      HAL2     0.900000E-01   1.00800           0   0.00000     -0.301140E-02
     19569 MEMB     158      PMPE     H3S      HAL2     0.900000E-01   1.00800           0   0.00000     -0.301140E-02
     19570 MEMB     158      PMPE     C24      CTL2    -0.180000       12.0110           0   0.00000     -0.301140E-02
     19571 MEMB     158      PMPE     H4R      HAL2     0.900000E-01   1.00800           0   0.00000     -0.301140E-02
     19572 MEMB     158      PMPE     H4S      HAL2     0.900000E-01   1.00800           0   0.00000     -0.301140E-02
     19573 MEMB     158      PMPE     C25      CTL2    -0.180000       12.0110           0   0.00000     -0.301140E-02
     19574 MEMB     158      PMPE     H5R      HAL2     0.900000E-01   1.00800           0   0.00000     -0.301140E-02
     19575 MEMB     158      PMPE     H5S      HAL2     0.900000E-01   1.00800           0   0.00000     -0.301140E-02
     19576 MEMB     158      PMPE     C26      CTL2    -0.180000       12.0110           0   0.00000     -0.301140E-02
     19577 MEMB     158      PMPE     H6R      HAL2     0.900000E-01   1.00800           0   0.00000     -0.301140E-02
     19578 MEMB     158      PMPE     H6S      HAL2     0.900000E-01   1.00800           0   0.00000     -0.301140E-02
     19579 MEMB     158      PMPE     C27      CTL2    -0.180000       12.0110           0   0.00000     -0.301140E-02
     19580 MEMB     158      PMPE     H7R      HAL2     0.900000E-01   1.00800           0   0.00000     -0.301140E-02
     19581 MEMB     158      PMPE     H7S      HAL2     0.900000E-01   1.00800           0   0.00000     -0.301140E-02
     19582 MEMB     158      PMPE     C28      CTL2    -0.180000       12.0110           0   0.00000     -0.301140E-02
     19583 MEMB     158      PMPE     H8R      HAL2     0.900000E-01   1.00800           0   0.00000     -0.301140E-02
     19584 MEMB     158      PMPE     H8S      HAL2     0.900000E-01   1.00800           0   0.00000     -0.301140E-02
     19585 MEMB     158      PMPE     C29      CG3RC1  -0.900000E-01   12.0110           0   0.00000     -0.301140E-02
     19586 MEMB     158      PMPE     H9R      HGA1     0.900000E-01   1.00800           0   0.00000     -0.301140E-02
     19587 MEMB     158      PMPE     C217     CG3C31  -0.180000       12.0110           0   0.00000     -0.301140E-02
     19588 MEMB     158      PMPE     H17R     HGA2     0.900000E-01   1.00800           0   0.00000     -0.301140E-02
     19589 MEMB     158      PMPE     H17S     HGA2     0.900000E-01   1.00800           0   0.00000     -0.301140E-02
     19590 MEMB     158      PMPE     C210     CG3RC1  -0.900000E-01   12.0110           0   0.00000     -0.301140E-02
     19591 MEMB     158      PMPE     H10R     HGA1     0.900000E-01   1.00800           0   0.00000     -0.301140E-02
     19592 MEMB     158      PMPE     C211     CTL2    -0.180000       12.0110           0   0.00000     -0.301140E-02
     19593 MEMB     158      PMPE     H11R     HAL2     0.900000E-01   1.00800           0   0.00000     -0.301140E-02
     19594 MEMB     158      PMPE     H11S     HAL2     0.900000E-01   1.00800           0   0.00000     -0.301140E-02
     19595 MEMB     158      PMPE     C212     CTL2    -0.180000       12.0110           0   0.00000     -0.301140E-02
     19596 MEMB     158      PMPE     H12R     HAL2     0.900000E-01   1.00800           0   0.00000     -0.301140E-02
     19597 MEMB     158      PMPE     H12S     HAL2     0.900000E-01   1.00800           0   0.00000     -0.301140E-02
     19598 MEMB     158      PMPE     C213     CTL2    -0.180000       12.0110           0   0.00000     -0.301140E-02
     19599 MEMB     158      PMPE     H13R     HAL2     0.900000E-01   1.00800           0   0.00000     -0.301140E-02
     19600 MEMB     158      PMPE     H13S     HAL2     0.900000E-01   1.00800           0   0.00000     -0.301140E-02
     19601 MEMB     158      PMPE     C214     CTL2    -0.180000       12.0110           0   0.00000     -0.301140E-02
     19602 MEMB     158      PMPE     H14R     HAL2     0.900000E-01   1.00800           0   0.00000     -0.301140E-02
     19603 MEMB     158      PMPE     H14S     HAL2     0.900000E-01   1.00800           0   0.00000     -0.301140E-02
     19604 MEMB     158      PMPE     C215     CTL2    -0.180000       12.0110           0   0.00000     -0.301140E-02
     19605 MEMB     158      PMPE     H15R     HAL2     0.900000E-01   1.00800           0   0.00000     -0.301140E-02
     19606 MEMB     158      PMPE     H15S     HAL2     0.900000E-01   1.00800           0   0.00000     -0.301140E-02
     19607 MEMB     158      PMPE     C216     CTL3    -0.270000       12.0110           0   0.00000     -0.301140E-02
     19608 MEMB     158      PMPE     H16R     HAL3     0.900000E-01   1.00800           0   0.00000     -0.301140E-02
     19609 MEMB     158      PMPE     H16S     HAL3     0.900000E-01   1.00800           0   0.00000     -0.301140E-02
     19610 MEMB     158      PMPE     H16T     HAL3     0.900000E-01   1.00800           0   0.00000     -0.301140E-02
     19611 MEMB     158      PMPE     C33      CTL2    -0.180000       12.0110           0   0.00000     -0.301140E-02
     19612 MEMB     158      PMPE     H3X      HAL2     0.900000E-01   1.00800           0   0.00000     -0.301140E-02
     19613 MEMB     158      PMPE     H3Y      HAL2     0.900000E-01   1.00800           0   0.00000     -0.301140E-02
     19614 MEMB     158      PMPE     C34      CTL2    -0.180000       12.0110           0   0.00000     -0.301140E-02
     19615 MEMB     158      PMPE     H4X      HAL2     0.900000E-01   1.00800           0   0.00000     -0.301140E-02
     19616 MEMB     158      PMPE     H4Y      HAL2     0.900000E-01   1.00800           0   0.00000     -0.301140E-02
     19617 MEMB     158      PMPE     C35      CTL2    -0.180000       12.0110           0   0.00000     -0.301140E-02
     19618 MEMB     158      PMPE     H5X      HAL2     0.900000E-01   1.00800           0   0.00000     -0.301140E-02
     19619 MEMB     158      PMPE     H5Y      HAL2     0.900000E-01   1.00800           0   0.00000     -0.301140E-02
     19620 MEMB     158      PMPE     C36      CTL2    -0.180000       12.0110           0   0.00000     -0.301140E-02
     19621 MEMB     158      PMPE     H6X      HAL2     0.900000E-01   1.00800           0   0.00000     -0.301140E-02
     19622 MEMB     158      PMPE     H6Y      HAL2     0.900000E-01   1.00800           0   0.00000     -0.301140E-02
     19623 MEMB     158      PMPE     C37      CTL2    -0.180000       12.0110           0   0.00000     -0.301140E-02
     19624 MEMB     158      PMPE     H7X      HAL2     0.900000E-01   1.00800           0   0.00000     -0.301140E-02
     19625 MEMB     158      PMPE     H7Y      HAL2     0.900000E-01   1.00800           0   0.00000     -0.301140E-02
     19626 MEMB     158      PMPE     C38      CTL2    -0.180000       12.0110           0   0.00000     -0.301140E-02
     19627 MEMB     158      PMPE     H8X      HAL2     0.900000E-01   1.00800           0   0.00000     -0.301140E-02
     19628 MEMB     158      PMPE     H8Y      HAL2     0.900000E-01   1.00800           0   0.00000     -0.301140E-02
     19629 MEMB     158      PMPE     C39      CTL2    -0.180000       12.0110           0   0.00000     -0.301140E-02
     19630 MEMB     158      PMPE     H9X      HAL2     0.900000E-01   1.00800           0   0.00000     -0.301140E-02
     19631 MEMB     158      PMPE     H9Y      HAL2     0.900000E-01   1.00800           0   0.00000     -0.301140E-02
     19632 MEMB     158      PMPE     C310     CTL2    -0.180000       12.0110           0   0.00000     -0.301140E-02
     19633 MEMB     158      PMPE     H10X     HAL2     0.900000E-01   1.00800           0   0.00000     -0.301140E-02
     19634 MEMB     158      PMPE     H10Y     HAL2     0.900000E-01   1.00800           0   0.00000     -0.301140E-02
     19635 MEMB     158      PMPE     C311     CTL2    -0.180000       12.0110           0   0.00000     -0.301140E-02
     19636 MEMB     158      PMPE     H11X     HAL2     0.900000E-01   1.00800           0   0.00000     -0.301140E-02
     19637 MEMB     158      PMPE     H11Y     HAL2     0.900000E-01   1.00800           0   0.00000     -0.301140E-02
     19638 MEMB     158      PMPE     C312     CTL2    -0.180000       12.0110           0   0.00000     -0.301140E-02
     19639 MEMB     158      PMPE     H12X     HAL2     0.900000E-01   1.00800           0   0.00000     -0.301140E-02
     19640 MEMB     158      PMPE     H12Y     HAL2     0.900000E-01   1.00800           0   0.00000     -0.301140E-02
     19641 MEMB     158      PMPE     C313     CTL2    -0.180000       12.0110           0   0.00000     -0.301140E-02
     19642 MEMB     158      PMPE     H13X     HAL2     0.900000E-01   1.00800           0   0.00000     -0.301140E-02
     19643 MEMB     158      PMPE     H13Y     HAL2     0.900000E-01   1.00800           0   0.00000     -0.301140E-02
     19644 MEMB     158      PMPE     C314     CTL2    -0.180000       12.0110           0   0.00000     -0.301140E-02
     19645 MEMB     158      PMPE     H14X     HAL2     0.900000E-01   1.00800           0   0.00000     -0.301140E-02
     19646 MEMB     158      PMPE     H14Y     HAL2     0.900000E-01   1.00800           0   0.00000     -0.301140E-02
     19647 MEMB     158      PMPE     C315     CTL2    -0.180000       12.0110           0   0.00000     -0.301140E-02
     19648 MEMB     158      PMPE     H15X     HAL2     0.900000E-01   1.00800           0   0.00000     -0.301140E-02
     19649 MEMB     158      PMPE     H15Y     HAL2     0.900000E-01   1.00800           0   0.00000     -0.301140E-02
     19650 MEMB     158      PMPE     C316     CTL3    -0.270000       12.0110           0   0.00000     -0.301140E-02
     19651 MEMB     158      PMPE     H16X     HAL3     0.900000E-01   1.00800           0   0.00000     -0.301140E-02
     19652 MEMB     158      PMPE     H16Y     HAL3     0.900000E-01   1.00800           0   0.00000     -0.301140E-02
     19653 MEMB     158      PMPE     H16Z     HAL3     0.900000E-01   1.00800           0   0.00000     -0.301140E-02
     19654 MEMB     159      PMPG     C13      CTL2     0.500000E-01   12.0110           0   0.00000     -0.301140E-02
     19655 MEMB     159      PMPG     H13A     HAL2     0.900000E-01   1.00800           0   0.00000     -0.301140E-02
     19656 MEMB     159      PMPG     H13B     HAL2     0.900000E-01   1.00800           0   0.00000     -0.301140E-02
     19657 MEMB     159      PMPG     OC3      OHL     -0.660000       15.9994           0   0.00000     -0.301140E-02
     19658 MEMB     159      PMPG     HO3      HOL      0.430000       1.00800           0   0.00000     -0.301140E-02
     19659 MEMB     159      PMPG     C12      CTL1     0.140000       12.0110           0   0.00000     -0.301140E-02
     19660 MEMB     159      PMPG     H12A     HAL1     0.900000E-01   1.00800           0   0.00000     -0.301140E-02
     19661 MEMB     159      PMPG     OC2      OHL     -0.660000       15.9994           0   0.00000     -0.301140E-02
     19662 MEMB     159      PMPG     HO2      HOL      0.430000       1.00800           0   0.00000     -0.301140E-02
     19663 MEMB     159      PMPG     C11      CTL2    -0.800000E-01   12.0110           0   0.00000     -0.301140E-02
     19664 MEMB     159      PMPG     H11A     HAL2     0.900000E-01   1.00800           0   0.00000     -0.301140E-02
     19665 MEMB     159      PMPG     H11B     HAL2     0.900000E-01   1.00800           0   0.00000     -0.301140E-02
     19666 MEMB     159      PMPG     P        PL        1.50000       30.9740           0   0.00000     -0.301140E-02
     19667 MEMB     159      PMPG     O13      O2L     -0.780000       15.9994           0   0.00000     -0.301140E-02
     19668 MEMB     159      PMPG     O14      O2L     -0.780000       15.9994           0   0.00000     -0.301140E-02
     19669 MEMB     159      PMPG     O11      OSLP    -0.570000       15.9994           0   0.00000     -0.301140E-02
     19670 MEMB     159      PMPG     O12      OSLP    -0.570000       15.9994           0   0.00000     -0.301140E-02
     19671 MEMB     159      PMPG     C1       CTL2    -0.800000E-01   12.0110           0   0.00000     -0.301140E-02
     19672 MEMB     159      PMPG     HA       HAL2     0.900000E-01   1.00800           0   0.00000     -0.301140E-02
     19673 MEMB     159      PMPG     HB       HAL2     0.900000E-01   1.00800           0   0.00000     -0.301140E-02
     19674 MEMB     159      PMPG     C2       CTL1     0.170000       12.0110           0   0.00000     -0.301140E-02
     19675 MEMB     159      PMPG     HS       HAL1     0.900000E-01   1.00800           0   0.00000     -0.301140E-02
     19676 MEMB     159      PMPG     O21      OSL     -0.490000       15.9994           0   0.00000     -0.301140E-02
     19677 MEMB     159      PMPG     C21      CL       0.900000       12.0110           0   0.00000     -0.301140E-02
     19678 MEMB     159      PMPG     O22      OBL     -0.630000       15.9994           0   0.00000     -0.301140E-02
     19679 MEMB     159      PMPG     C22      CTL2    -0.220000       12.0110           0   0.00000     -0.301140E-02
     19680 MEMB     159      PMPG     H2R      HAL2     0.900000E-01   1.00800           0   0.00000     -0.301140E-02
     19681 MEMB     159      PMPG     H2S      HAL2     0.900000E-01   1.00800           0   0.00000     -0.301140E-02
     19682 MEMB     159      PMPG     C3       CTL2     0.800000E-01   12.0110           0   0.00000     -0.301140E-02
     19683 MEMB     159      PMPG     HX       HAL2     0.900000E-01   1.00800           0   0.00000     -0.301140E-02
     19684 MEMB     159      PMPG     HY       HAL2     0.900000E-01   1.00800           0   0.00000     -0.301140E-02
     19685 MEMB     159      PMPG     O31      OSL     -0.490000       15.9994           0   0.00000     -0.301140E-02
     19686 MEMB     159      PMPG     C31      CL       0.900000       12.0110           0   0.00000     -0.301140E-02
     19687 MEMB     159      PMPG     O32      OBL     -0.630000       15.9994           0   0.00000     -0.301140E-02
     19688 MEMB     159      PMPG     C32      CTL2    -0.220000       12.0110           0   0.00000     -0.301140E-02
     19689 MEMB     159      PMPG     H2X      HAL2     0.900000E-01   1.00800           0   0.00000     -0.301140E-02
     19690 MEMB     159      PMPG     H2Y      HAL2     0.900000E-01   1.00800           0   0.00000     -0.301140E-02
     19691 MEMB     159      PMPG     C23      CTL2    -0.180000       12.0110           0   0.00000     -0.301140E-02
     19692 MEMB     159      PMPG     H3R      HAL2     0.900000E-01   1.00800           0   0.00000     -0.301140E-02
     19693 MEMB     159      PMPG     H3S      HAL2     0.900000E-01   1.00800           0   0.00000     -0.301140E-02
     19694 MEMB     159      PMPG     C24      CTL2    -0.180000       12.0110           0   0.00000     -0.301140E-02
     19695 MEMB     159      PMPG     H4R      HAL2     0.900000E-01   1.00800           0   0.00000     -0.301140E-02
     19696 MEMB     159      PMPG     H4S      HAL2     0.900000E-01   1.00800           0   0.00000     -0.301140E-02
     19697 MEMB     159      PMPG     C25      CTL2    -0.180000       12.0110           0   0.00000     -0.301140E-02
     19698 MEMB     159      PMPG     H5R      HAL2     0.900000E-01   1.00800           0   0.00000     -0.301140E-02
     19699 MEMB     159      PMPG     H5S      HAL2     0.900000E-01   1.00800           0   0.00000     -0.301140E-02
     19700 MEMB     159      PMPG     C26      CTL2    -0.180000       12.0110           0   0.00000     -0.301140E-02
     19701 MEMB     159      PMPG     H6R      HAL2     0.900000E-01   1.00800           0   0.00000     -0.301140E-02
     19702 MEMB     159      PMPG     H6S      HAL2     0.900000E-01   1.00800           0   0.00000     -0.301140E-02
     19703 MEMB     159      PMPG     C27      CTL2    -0.180000       12.0110           0   0.00000     -0.301140E-02
     19704 MEMB     159      PMPG     H7R      HAL2     0.900000E-01   1.00800           0   0.00000     -0.301140E-02
     19705 MEMB     159      PMPG     H7S      HAL2     0.900000E-01   1.00800           0   0.00000     -0.301140E-02
     19706 MEMB     159      PMPG     C28      CTL2    -0.180000       12.0110           0   0.00000     -0.301140E-02
     19707 MEMB     159      PMPG     H8R      HAL2     0.900000E-01   1.00800           0   0.00000     -0.301140E-02
     19708 MEMB     159      PMPG     H8S      HAL2     0.900000E-01   1.00800           0   0.00000     -0.301140E-02
     19709 MEMB     159      PMPG     C29      CG3RC1  -0.900000E-01   12.0110           0   0.00000     -0.301140E-02
     19710 MEMB     159      PMPG     H9R      HGA1     0.900000E-01   1.00800           0   0.00000     -0.301140E-02
     19711 MEMB     159      PMPG     C217     CG3C31  -0.180000       12.0110           0   0.00000     -0.301140E-02
     19712 MEMB     159      PMPG     H17R     HGA2     0.900000E-01   1.00800           0   0.00000     -0.301140E-02
     19713 MEMB     159      PMPG     H17S     HGA2     0.900000E-01   1.00800           0   0.00000     -0.301140E-02
     19714 MEMB     159      PMPG     C210     CG3RC1  -0.900000E-01   12.0110           0   0.00000     -0.301140E-02
     19715 MEMB     159      PMPG     H10R     HGA1     0.900000E-01   1.00800           0   0.00000     -0.301140E-02
     19716 MEMB     159      PMPG     C211     CTL2    -0.180000       12.0110           0   0.00000     -0.301140E-02
     19717 MEMB     159      PMPG     H11R     HAL2     0.900000E-01   1.00800           0   0.00000     -0.301140E-02
     19718 MEMB     159      PMPG     H11S     HAL2     0.900000E-01   1.00800           0   0.00000     -0.301140E-02
     19719 MEMB     159      PMPG     C212     CTL2    -0.180000       12.0110           0   0.00000     -0.301140E-02
     19720 MEMB     159      PMPG     H12R     HAL2     0.900000E-01   1.00800           0   0.00000     -0.301140E-02
     19721 MEMB     159      PMPG     H12S     HAL2     0.900000E-01   1.00800           0   0.00000     -0.301140E-02
     19722 MEMB     159      PMPG     C213     CTL2    -0.180000       12.0110           0   0.00000     -0.301140E-02
     19723 MEMB     159      PMPG     H13R     HAL2     0.900000E-01   1.00800           0   0.00000     -0.301140E-02
     19724 MEMB     159      PMPG     H13S     HAL2     0.900000E-01   1.00800           0   0.00000     -0.301140E-02
     19725 MEMB     159      PMPG     C214     CTL2    -0.180000       12.0110           0   0.00000     -0.301140E-02
     19726 MEMB     159      PMPG     H14R     HAL2     0.900000E-01   1.00800           0   0.00000     -0.301140E-02
     19727 MEMB     159      PMPG     H14S     HAL2     0.900000E-01   1.00800           0   0.00000     -0.301140E-02
     19728 MEMB     159      PMPG     C215     CTL2    -0.180000       12.0110           0   0.00000     -0.301140E-02
     19729 MEMB     159      PMPG     H15R     HAL2     0.900000E-01   1.00800           0   0.00000     -0.301140E-02
     19730 MEMB     159      PMPG     H15S     HAL2     0.900000E-01   1.00800           0   0.00000     -0.301140E-02
     19731 MEMB     159      PMPG     C216     CTL3    -0.270000       12.0110           0   0.00000     -0.301140E-02
     19732 MEMB     159      PMPG     H16R     HAL3     0.900000E-01   1.00800           0   0.00000     -0.301140E-02
     19733 MEMB     159      PMPG     H16S     HAL3     0.900000E-01   1.00800           0   0.00000     -0.301140E-02
     19734 MEMB     159      PMPG     H16T     HAL3     0.900000E-01   1.00800           0   0.00000     -0.301140E-02
     19735 MEMB     159      PMPG     C33      CTL2    -0.180000       12.0110           0   0.00000     -0.301140E-02
     19736 MEMB     159      PMPG     H3X      HAL2     0.900000E-01   1.00800           0   0.00000     -0.301140E-02
     19737 MEMB     159      PMPG     H3Y      HAL2     0.900000E-01   1.00800           0   0.00000     -0.301140E-02
     19738 MEMB     159      PMPG     C34      CTL2    -0.180000       12.0110           0   0.00000     -0.301140E-02
     19739 MEMB     159      PMPG     H4X      HAL2     0.900000E-01   1.00800           0   0.00000     -0.301140E-02
     19740 MEMB     159      PMPG     H4Y      HAL2     0.900000E-01   1.00800           0   0.00000     -0.301140E-02
     19741 MEMB     159      PMPG     C35      CTL2    -0.180000       12.0110           0   0.00000     -0.301140E-02
     19742 MEMB     159      PMPG     H5X      HAL2     0.900000E-01   1.00800           0   0.00000     -0.301140E-02
     19743 MEMB     159      PMPG     H5Y      HAL2     0.900000E-01   1.00800           0   0.00000     -0.301140E-02
     19744 MEMB     159      PMPG     C36      CTL2    -0.180000       12.0110           0   0.00000     -0.301140E-02
     19745 MEMB     159      PMPG     H6X      HAL2     0.900000E-01   1.00800           0   0.00000     -0.301140E-02
     19746 MEMB     159      PMPG     H6Y      HAL2     0.900000E-01   1.00800           0   0.00000     -0.301140E-02
     19747 MEMB     159      PMPG     C37      CTL2    -0.180000       12.0110           0   0.00000     -0.301140E-02
     19748 MEMB     159      PMPG     H7X      HAL2     0.900000E-01   1.00800           0   0.00000     -0.301140E-02
     19749 MEMB     159      PMPG     H7Y      HAL2     0.900000E-01   1.00800           0   0.00000     -0.301140E-02
     19750 MEMB     159      PMPG     C38      CTL2    -0.180000       12.0110           0   0.00000     -0.301140E-02
     19751 MEMB     159      PMPG     H8X      HAL2     0.900000E-01   1.00800           0   0.00000     -0.301140E-02
     19752 MEMB     159      PMPG     H8Y      HAL2     0.900000E-01   1.00800           0   0.00000     -0.301140E-02
     19753 MEMB     159      PMPG     C39      CTL2    -0.180000       12.0110           0   0.00000     -0.301140E-02
     19754 MEMB     159      PMPG     H9X      HAL2     0.900000E-01   1.00800           0   0.00000     -0.301140E-02
     19755 MEMB     159      PMPG     H9Y      HAL2     0.900000E-01   1.00800           0   0.00000     -0.301140E-02
     19756 MEMB     159      PMPG     C310     CTL2    -0.180000       12.0110           0   0.00000     -0.301140E-02
     19757 MEMB     159      PMPG     H10X     HAL2     0.900000E-01   1.00800           0   0.00000     -0.301140E-02
     19758 MEMB     159      PMPG     H10Y     HAL2     0.900000E-01   1.00800           0   0.00000     -0.301140E-02
     19759 MEMB     159      PMPG     C311     CTL2    -0.180000       12.0110           0   0.00000     -0.301140E-02
     19760 MEMB     159      PMPG     H11X     HAL2     0.900000E-01   1.00800           0   0.00000     -0.301140E-02
     19761 MEMB     159      PMPG     H11Y     HAL2     0.900000E-01   1.00800           0   0.00000     -0.301140E-02
     19762 MEMB     159      PMPG     C312     CTL2    -0.180000       12.0110           0   0.00000     -0.301140E-02
     19763 MEMB     159      PMPG     H12X     HAL2     0.900000E-01   1.00800           0   0.00000     -0.301140E-02
     19764 MEMB     159      PMPG     H12Y     HAL2     0.900000E-01   1.00800           0   0.00000     -0.301140E-02
     19765 MEMB     159      PMPG     C313     CTL2    -0.180000       12.0110           0   0.00000     -0.301140E-02
     19766 MEMB     159      PMPG     H13X     HAL2     0.900000E-01   1.00800           0   0.00000     -0.301140E-02
     19767 MEMB     159      PMPG     H13Y     HAL2     0.900000E-01   1.00800           0   0.00000     -0.301140E-02
     19768 MEMB     159      PMPG     C314     CTL2    -0.180000       12.0110           0   0.00000     -0.301140E-02
     19769 MEMB     159      PMPG     H14X     HAL2     0.900000E-01   1.00800           0   0.00000     -0.301140E-02
     19770 MEMB     159      PMPG     H14Y     HAL2     0.900000E-01   1.00800           0   0.00000     -0.301140E-02
     19771 MEMB     159      PMPG     C315     CTL2    -0.180000       12.0110           0   0.00000     -0.301140E-02
     19772 MEMB     159      PMPG     H15X     HAL2     0.900000E-01   1.00800           0   0.00000     -0.301140E-02
     19773 MEMB     159      PMPG     H15Y     HAL2     0.900000E-01   1.00800           0   0.00000     -0.301140E-02
     19774 MEMB     159      PMPG     C316     CTL3    -0.270000       12.0110           0   0.00000     -0.301140E-02
     19775 MEMB     159      PMPG     H16X     HAL3     0.900000E-01   1.00800           0   0.00000     -0.301140E-02
     19776 MEMB     159      PMPG     H16Y     HAL3     0.900000E-01   1.00800           0   0.00000     -0.301140E-02
     19777 MEMB     159      PMPG     H16Z     HAL3     0.900000E-01   1.00800           0   0.00000     -0.301140E-02
     19778 MEMB     160      OYPE     N        NH3L    -0.300000       14.0070           0   0.00000     -0.301140E-02
     19779 MEMB     160      OYPE     HN1      HCL      0.330000       1.00800           0   0.00000     -0.301140E-02
     19780 MEMB     160      OYPE     HN2      HCL      0.330000       1.00800           0   0.00000     -0.301140E-02
     19781 MEMB     160      OYPE     HN3      HCL      0.330000       1.00800           0   0.00000     -0.301140E-02
     19782 MEMB     160      OYPE     C12      CTL2     0.130000       12.0110           0   0.00000     -0.301140E-02
     19783 MEMB     160      OYPE     H12A     HAL2     0.900000E-01   1.00800           0   0.00000     -0.301140E-02
     19784 MEMB     160      OYPE     H12B     HAL2     0.900000E-01   1.00800           0   0.00000     -0.301140E-02
     19785 MEMB     160      OYPE     C11      CTL2    -0.800000E-01   12.0110           0   0.00000     -0.301140E-02
     19786 MEMB     160      OYPE     H11A     HAL2     0.900000E-01   1.00800           0   0.00000     -0.301140E-02
     19787 MEMB     160      OYPE     H11B     HAL2     0.900000E-01   1.00800           0   0.00000     -0.301140E-02
     19788 MEMB     160      OYPE     P        PL        1.50000       30.9740           0   0.00000     -0.301140E-02
     19789 MEMB     160      OYPE     O13      O2L     -0.780000       15.9994           0   0.00000     -0.301140E-02
     19790 MEMB     160      OYPE     O14      O2L     -0.780000       15.9994           0   0.00000     -0.301140E-02
     19791 MEMB     160      OYPE     O11      OSLP    -0.570000       15.9994           0   0.00000     -0.301140E-02
     19792 MEMB     160      OYPE     O12      OSLP    -0.570000       15.9994           0   0.00000     -0.301140E-02
     19793 MEMB     160      OYPE     C1       CTL2    -0.800000E-01   12.0110           0   0.00000     -0.301140E-02
     19794 MEMB     160      OYPE     HA       HAL2     0.900000E-01   1.00800           0   0.00000     -0.301140E-02
     19795 MEMB     160      OYPE     HB       HAL2     0.900000E-01   1.00800           0   0.00000     -0.301140E-02
     19796 MEMB     160      OYPE     C2       CTL1     0.170000       12.0110           0   0.00000     -0.301140E-02
     19797 MEMB     160      OYPE     HS       HAL1     0.900000E-01   1.00800           0   0.00000     -0.301140E-02
     19798 MEMB     160      OYPE     O21      OSL     -0.490000       15.9994           0   0.00000     -0.301140E-02
     19799 MEMB     160      OYPE     C21      CL       0.900000       12.0110           0   0.00000     -0.301140E-02
     19800 MEMB     160      OYPE     O22      OBL     -0.630000       15.9994           0   0.00000     -0.301140E-02
     19801 MEMB     160      OYPE     C22      CTL2    -0.220000       12.0110           0   0.00000     -0.301140E-02
     19802 MEMB     160      OYPE     H2R      HAL2     0.900000E-01   1.00800           0   0.00000     -0.301140E-02
     19803 MEMB     160      OYPE     H2S      HAL2     0.900000E-01   1.00800           0   0.00000     -0.301140E-02
     19804 MEMB     160      OYPE     C3       CTL2     0.800000E-01   12.0110           0   0.00000     -0.301140E-02
     19805 MEMB     160      OYPE     HX       HAL2     0.900000E-01   1.00800           0   0.00000     -0.301140E-02
     19806 MEMB     160      OYPE     HY       HAL2     0.900000E-01   1.00800           0   0.00000     -0.301140E-02
     19807 MEMB     160      OYPE     O31      OSL     -0.490000       15.9994           0   0.00000     -0.301140E-02
     19808 MEMB     160      OYPE     C31      CL       0.900000       12.0110           0   0.00000     -0.301140E-02
     19809 MEMB     160      OYPE     O32      OBL     -0.630000       15.9994           0   0.00000     -0.301140E-02
     19810 MEMB     160      OYPE     C32      CTL2    -0.220000       12.0110           0   0.00000     -0.301140E-02
     19811 MEMB     160      OYPE     H2X      HAL2     0.900000E-01   1.00800           0   0.00000     -0.301140E-02
     19812 MEMB     160      OYPE     H2Y      HAL2     0.900000E-01   1.00800           0   0.00000     -0.301140E-02
     19813 MEMB     160      OYPE     C23      CTL2    -0.180000       12.0110           0   0.00000     -0.301140E-02
     19814 MEMB     160      OYPE     H3R      HAL2     0.900000E-01   1.00800           0   0.00000     -0.301140E-02
     19815 MEMB     160      OYPE     H3S      HAL2     0.900000E-01   1.00800           0   0.00000     -0.301140E-02
     19816 MEMB     160      OYPE     C24      CTL2    -0.180000       12.0110           0   0.00000     -0.301140E-02
     19817 MEMB     160      OYPE     H4R      HAL2     0.900000E-01   1.00800           0   0.00000     -0.301140E-02
     19818 MEMB     160      OYPE     H4S      HAL2     0.900000E-01   1.00800           0   0.00000     -0.301140E-02
     19819 MEMB     160      OYPE     C25      CTL2    -0.180000       12.0110           0   0.00000     -0.301140E-02
     19820 MEMB     160      OYPE     H5R      HAL2     0.900000E-01   1.00800           0   0.00000     -0.301140E-02
     19821 MEMB     160      OYPE     H5S      HAL2     0.900000E-01   1.00800           0   0.00000     -0.301140E-02
     19822 MEMB     160      OYPE     C26      CTL2    -0.180000       12.0110           0   0.00000     -0.301140E-02
     19823 MEMB     160      OYPE     H6R      HAL2     0.900000E-01   1.00800           0   0.00000     -0.301140E-02
     19824 MEMB     160      OYPE     H6S      HAL2     0.900000E-01   1.00800           0   0.00000     -0.301140E-02
     19825 MEMB     160      OYPE     C27      CTL2    -0.180000       12.0110           0   0.00000     -0.301140E-02
     19826 MEMB     160      OYPE     H7R      HAL2     0.900000E-01   1.00800           0   0.00000     -0.301140E-02
     19827 MEMB     160      OYPE     H7S      HAL2     0.900000E-01   1.00800           0   0.00000     -0.301140E-02
     19828 MEMB     160      OYPE     C28      CTL2    -0.180000       12.0110           0   0.00000     -0.301140E-02
     19829 MEMB     160      OYPE     H8R      HAL2     0.900000E-01   1.00800           0   0.00000     -0.301140E-02
     19830 MEMB     160      OYPE     H8S      HAL2     0.900000E-01   1.00800           0   0.00000     -0.301140E-02
     19831 MEMB     160      OYPE     C29      CEL1    -0.150000       12.0110           0   0.00000     -0.301140E-02
     19832 MEMB     160      OYPE     H9R      HEL1     0.150000       1.00800           0   0.00000     -0.301140E-02
     19833 MEMB     160      OYPE     C210     CEL1    -0.150000       12.0110           0   0.00000     -0.301140E-02
     19834 MEMB     160      OYPE     H10R     HEL1     0.150000       1.00800           0   0.00000     -0.301140E-02
     19835 MEMB     160      OYPE     C211     CTL2    -0.180000       12.0110           0   0.00000     -0.301140E-02
     19836 MEMB     160      OYPE     H11R     HAL2     0.900000E-01   1.00800           0   0.00000     -0.301140E-02
     19837 MEMB     160      OYPE     H11S     HAL2     0.900000E-01   1.00800           0   0.00000     -0.301140E-02
     19838 MEMB     160      OYPE     C212     CTL2    -0.180000       12.0110           0   0.00000     -0.301140E-02
     19839 MEMB     160      OYPE     H12R     HAL2     0.900000E-01   1.00800           0   0.00000     -0.301140E-02
     19840 MEMB     160      OYPE     H12S     HAL2     0.900000E-01   1.00800           0   0.00000     -0.301140E-02
     19841 MEMB     160      OYPE     C213     CTL2    -0.180000       12.0110           0   0.00000     -0.301140E-02
     19842 MEMB     160      OYPE     H13R     HAL2     0.900000E-01   1.00800           0   0.00000     -0.301140E-02
     19843 MEMB     160      OYPE     H13S     HAL2     0.900000E-01   1.00800           0   0.00000     -0.301140E-02
     19844 MEMB     160      OYPE     C214     CTL2    -0.180000       12.0110           0   0.00000     -0.301140E-02
     19845 MEMB     160      OYPE     H14R     HAL2     0.900000E-01   1.00800           0   0.00000     -0.301140E-02
     19846 MEMB     160      OYPE     H14S     HAL2     0.900000E-01   1.00800           0   0.00000     -0.301140E-02
     19847 MEMB     160      OYPE     C215     CTL2    -0.180000       12.0110           0   0.00000     -0.301140E-02
     19848 MEMB     160      OYPE     H15R     HAL2     0.900000E-01   1.00800           0   0.00000     -0.301140E-02
     19849 MEMB     160      OYPE     H15S     HAL2     0.900000E-01   1.00800           0   0.00000     -0.301140E-02
     19850 MEMB     160      OYPE     C216     CTL3    -0.270000       12.0110           0   0.00000     -0.301140E-02
     19851 MEMB     160      OYPE     H16R     HAL3     0.900000E-01   1.00800           0   0.00000     -0.301140E-02
     19852 MEMB     160      OYPE     H16S     HAL3     0.900000E-01   1.00800           0   0.00000     -0.301140E-02
     19853 MEMB     160      OYPE     H16T     HAL3     0.900000E-01   1.00800           0   0.00000     -0.301140E-02
     19854 MEMB     160      OYPE     C33      CTL2    -0.180000       12.0110           0   0.00000     -0.301140E-02
     19855 MEMB     160      OYPE     H3X      HAL2     0.900000E-01   1.00800           0   0.00000     -0.301140E-02
     19856 MEMB     160      OYPE     H3Y      HAL2     0.900000E-01   1.00800           0   0.00000     -0.301140E-02
     19857 MEMB     160      OYPE     C34      CTL2    -0.180000       12.0110           0   0.00000     -0.301140E-02
     19858 MEMB     160      OYPE     H4X      HAL2     0.900000E-01   1.00800           0   0.00000     -0.301140E-02
     19859 MEMB     160      OYPE     H4Y      HAL2     0.900000E-01   1.00800           0   0.00000     -0.301140E-02
     19860 MEMB     160      OYPE     C35      CTL2    -0.180000       12.0110           0   0.00000     -0.301140E-02
     19861 MEMB     160      OYPE     H5X      HAL2     0.900000E-01   1.00800           0   0.00000     -0.301140E-02
     19862 MEMB     160      OYPE     H5Y      HAL2     0.900000E-01   1.00800           0   0.00000     -0.301140E-02
     19863 MEMB     160      OYPE     C36      CTL2    -0.180000       12.0110           0   0.00000     -0.301140E-02
     19864 MEMB     160      OYPE     H6X      HAL2     0.900000E-01   1.00800           0   0.00000     -0.301140E-02
     19865 MEMB     160      OYPE     H6Y      HAL2     0.900000E-01   1.00800           0   0.00000     -0.301140E-02
     19866 MEMB     160      OYPE     C37      CTL2    -0.180000       12.0110           0   0.00000     -0.301140E-02
     19867 MEMB     160      OYPE     H7X      HAL2     0.900000E-01   1.00800           0   0.00000     -0.301140E-02
     19868 MEMB     160      OYPE     H7Y      HAL2     0.900000E-01   1.00800           0   0.00000     -0.301140E-02
     19869 MEMB     160      OYPE     C38      CTL2    -0.180000       12.0110           0   0.00000     -0.301140E-02
     19870 MEMB     160      OYPE     H8X      HAL2     0.900000E-01   1.00800           0   0.00000     -0.301140E-02
     19871 MEMB     160      OYPE     H8Y      HAL2     0.900000E-01   1.00800           0   0.00000     -0.301140E-02
     19872 MEMB     160      OYPE     C39      CEL1    -0.150000       12.0110           0   0.00000     -0.301140E-02
     19873 MEMB     160      OYPE     H9X      HEL1     0.150000       1.00800           0   0.00000     -0.301140E-02
     19874 MEMB     160      OYPE     C310     CEL1    -0.150000       12.0110           0   0.00000     -0.301140E-02
     19875 MEMB     160      OYPE     H10X     HEL1     0.150000       1.00800           0   0.00000     -0.301140E-02
     19876 MEMB     160      OYPE     C311     CTL2    -0.180000       12.0110           0   0.00000     -0.301140E-02
     19877 MEMB     160      OYPE     H11X     HAL2     0.900000E-01   1.00800           0   0.00000     -0.301140E-02
     19878 MEMB     160      OYPE     H11Y     HAL2     0.900000E-01   1.00800           0   0.00000     -0.301140E-02
     19879 MEMB     160      OYPE     C312     CTL2    -0.180000       12.0110           0   0.00000     -0.301140E-02
     19880 MEMB     160      OYPE     H12X     HAL2     0.900000E-01   1.00800           0   0.00000     -0.301140E-02
     19881 MEMB     160      OYPE     H12Y     HAL2     0.900000E-01   1.00800           0   0.00000     -0.301140E-02
     19882 MEMB     160      OYPE     C313     CTL2    -0.180000       12.0110           0   0.00000     -0.301140E-02
     19883 MEMB     160      OYPE     H13X     HAL2     0.900000E-01   1.00800           0   0.00000     -0.301140E-02
     19884 MEMB     160      OYPE     H13Y     HAL2     0.900000E-01   1.00800           0   0.00000     -0.301140E-02
     19885 MEMB     160      OYPE     C314     CTL2    -0.180000       12.0110           0   0.00000     -0.301140E-02
     19886 MEMB     160      OYPE     H14X     HAL2     0.900000E-01   1.00800           0   0.00000     -0.301140E-02
     19887 MEMB     160      OYPE     H14Y     HAL2     0.900000E-01   1.00800           0   0.00000     -0.301140E-02
     19888 MEMB     160      OYPE     C315     CTL2    -0.180000       12.0110           0   0.00000     -0.301140E-02
     19889 MEMB     160      OYPE     H15X     HAL2     0.900000E-01   1.00800           0   0.00000     -0.301140E-02
     19890 MEMB     160      OYPE     H15Y     HAL2     0.900000E-01   1.00800           0   0.00000     -0.301140E-02
     19891 MEMB     160      OYPE     C316     CTL2    -0.180000       12.0110           0   0.00000     -0.301140E-02
     19892 MEMB     160      OYPE     H16X     HAL2     0.900000E-01   1.00800           0   0.00000     -0.301140E-02
     19893 MEMB     160      OYPE     H16Y     HAL2     0.900000E-01   1.00800           0   0.00000     -0.301140E-02
     19894 MEMB     160      OYPE     C317     CTL2    -0.180000       12.0110           0   0.00000     -0.301140E-02
     19895 MEMB     160      OYPE     H17X     HAL2     0.900000E-01   1.00800           0   0.00000     -0.301140E-02
     19896 MEMB     160      OYPE     H17Y     HAL2     0.900000E-01   1.00800           0   0.00000     -0.301140E-02
     19897 MEMB     160      OYPE     C318     CTL3    -0.270000       12.0110           0   0.00000     -0.301140E-02
     19898 MEMB     160      OYPE     H18X     HAL3     0.900000E-01   1.00800           0   0.00000     -0.301140E-02
     19899 MEMB     160      OYPE     H18Y     HAL3     0.900000E-01   1.00800           0   0.00000     -0.301140E-02
     19900 MEMB     160      OYPE     H18Z     HAL3     0.900000E-01   1.00800           0   0.00000     -0.301140E-02
     19901 MEMB     161      PMPE     N        NH3L    -0.300000       14.0070           0   0.00000     -0.301140E-02
     19902 MEMB     161      PMPE     HN1      HCL      0.330000       1.00800           0   0.00000     -0.301140E-02
     19903 MEMB     161      PMPE     HN2      HCL      0.330000       1.00800           0   0.00000     -0.301140E-02
     19904 MEMB     161      PMPE     HN3      HCL      0.330000       1.00800           0   0.00000     -0.301140E-02
     19905 MEMB     161      PMPE     C12      CTL2     0.130000       12.0110           0   0.00000     -0.301140E-02
     19906 MEMB     161      PMPE     H12A     HAL2     0.900000E-01   1.00800           0   0.00000     -0.301140E-02
     19907 MEMB     161      PMPE     H12B     HAL2     0.900000E-01   1.00800           0   0.00000     -0.301140E-02
     19908 MEMB     161      PMPE     C11      CTL2    -0.800000E-01   12.0110           0   0.00000     -0.301140E-02
     19909 MEMB     161      PMPE     H11A     HAL2     0.900000E-01   1.00800           0   0.00000     -0.301140E-02
     19910 MEMB     161      PMPE     H11B     HAL2     0.900000E-01   1.00800           0   0.00000     -0.301140E-02
     19911 MEMB     161      PMPE     P        PL        1.50000       30.9740           0   0.00000     -0.301140E-02
     19912 MEMB     161      PMPE     O13      O2L     -0.780000       15.9994           0   0.00000     -0.301140E-02
     19913 MEMB     161      PMPE     O14      O2L     -0.780000       15.9994           0   0.00000     -0.301140E-02
     19914 MEMB     161      PMPE     O11      OSLP    -0.570000       15.9994           0   0.00000     -0.301140E-02
     19915 MEMB     161      PMPE     O12      OSLP    -0.570000       15.9994           0   0.00000     -0.301140E-02
     19916 MEMB     161      PMPE     C1       CTL2    -0.800000E-01   12.0110           0   0.00000     -0.301140E-02
     19917 MEMB     161      PMPE     HA       HAL2     0.900000E-01   1.00800           0   0.00000     -0.301140E-02
     19918 MEMB     161      PMPE     HB       HAL2     0.900000E-01   1.00800           0   0.00000     -0.301140E-02
     19919 MEMB     161      PMPE     C2       CTL1     0.170000       12.0110           0   0.00000     -0.301140E-02
     19920 MEMB     161      PMPE     HS       HAL1     0.900000E-01   1.00800           0   0.00000     -0.301140E-02
     19921 MEMB     161      PMPE     O21      OSL     -0.490000       15.9994           0   0.00000     -0.301140E-02
     19922 MEMB     161      PMPE     C21      CL       0.900000       12.0110           0   0.00000     -0.301140E-02
     19923 MEMB     161      PMPE     O22      OBL     -0.630000       15.9994           0   0.00000     -0.301140E-02
     19924 MEMB     161      PMPE     C22      CTL2    -0.220000       12.0110           0   0.00000     -0.301140E-02
     19925 MEMB     161      PMPE     H2R      HAL2     0.900000E-01   1.00800           0   0.00000     -0.301140E-02
     19926 MEMB     161      PMPE     H2S      HAL2     0.900000E-01   1.00800           0   0.00000     -0.301140E-02
     19927 MEMB     161      PMPE     C3       CTL2     0.800000E-01   12.0110           0   0.00000     -0.301140E-02
     19928 MEMB     161      PMPE     HX       HAL2     0.900000E-01   1.00800           0   0.00000     -0.301140E-02
     19929 MEMB     161      PMPE     HY       HAL2     0.900000E-01   1.00800           0   0.00000     -0.301140E-02
     19930 MEMB     161      PMPE     O31      OSL     -0.490000       15.9994           0   0.00000     -0.301140E-02
     19931 MEMB     161      PMPE     C31      CL       0.900000       12.0110           0   0.00000     -0.301140E-02
     19932 MEMB     161      PMPE     O32      OBL     -0.630000       15.9994           0   0.00000     -0.301140E-02
     19933 MEMB     161      PMPE     C32      CTL2    -0.220000       12.0110           0   0.00000     -0.301140E-02
     19934 MEMB     161      PMPE     H2X      HAL2     0.900000E-01   1.00800           0   0.00000     -0.301140E-02
     19935 MEMB     161      PMPE     H2Y      HAL2     0.900000E-01   1.00800           0   0.00000     -0.301140E-02
     19936 MEMB     161      PMPE     C23      CTL2    -0.180000       12.0110           0   0.00000     -0.301140E-02
     19937 MEMB     161      PMPE     H3R      HAL2     0.900000E-01   1.00800           0   0.00000     -0.301140E-02
     19938 MEMB     161      PMPE     H3S      HAL2     0.900000E-01   1.00800           0   0.00000     -0.301140E-02
     19939 MEMB     161      PMPE     C24      CTL2    -0.180000       12.0110           0   0.00000     -0.301140E-02
     19940 MEMB     161      PMPE     H4R      HAL2     0.900000E-01   1.00800           0   0.00000     -0.301140E-02
     19941 MEMB     161      PMPE     H4S      HAL2     0.900000E-01   1.00800           0   0.00000     -0.301140E-02
     19942 MEMB     161      PMPE     C25      CTL2    -0.180000       12.0110           0   0.00000     -0.301140E-02
     19943 MEMB     161      PMPE     H5R      HAL2     0.900000E-01   1.00800           0   0.00000     -0.301140E-02
     19944 MEMB     161      PMPE     H5S      HAL2     0.900000E-01   1.00800           0   0.00000     -0.301140E-02
     19945 MEMB     161      PMPE     C26      CTL2    -0.180000       12.0110           0   0.00000     -0.301140E-02
     19946 MEMB     161      PMPE     H6R      HAL2     0.900000E-01   1.00800           0   0.00000     -0.301140E-02
     19947 MEMB     161      PMPE     H6S      HAL2     0.900000E-01   1.00800           0   0.00000     -0.301140E-02
     19948 MEMB     161      PMPE     C27      CTL2    -0.180000       12.0110           0   0.00000     -0.301140E-02
     19949 MEMB     161      PMPE     H7R      HAL2     0.900000E-01   1.00800           0   0.00000     -0.301140E-02
     19950 MEMB     161      PMPE     H7S      HAL2     0.900000E-01   1.00800           0   0.00000     -0.301140E-02
     19951 MEMB     161      PMPE     C28      CTL2    -0.180000       12.0110           0   0.00000     -0.301140E-02
     19952 MEMB     161      PMPE     H8R      HAL2     0.900000E-01   1.00800           0   0.00000     -0.301140E-02
     19953 MEMB     161      PMPE     H8S      HAL2     0.900000E-01   1.00800           0   0.00000     -0.301140E-02
     19954 MEMB     161      PMPE     C29      CG3RC1  -0.900000E-01   12.0110           0   0.00000     -0.301140E-02
     19955 MEMB     161      PMPE     H9R      HGA1     0.900000E-01   1.00800           0   0.00000     -0.301140E-02
     19956 MEMB     161      PMPE     C217     CG3C31  -0.180000       12.0110           0   0.00000     -0.301140E-02
     19957 MEMB     161      PMPE     H17R     HGA2     0.900000E-01   1.00800           0   0.00000     -0.301140E-02
     19958 MEMB     161      PMPE     H17S     HGA2     0.900000E-01   1.00800           0   0.00000     -0.301140E-02
     19959 MEMB     161      PMPE     C210     CG3RC1  -0.900000E-01   12.0110           0   0.00000     -0.301140E-02
     19960 MEMB     161      PMPE     H10R     HGA1     0.900000E-01   1.00800           0   0.00000     -0.301140E-02
     19961 MEMB     161      PMPE     C211     CTL2    -0.180000       12.0110           0   0.00000     -0.301140E-02
     19962 MEMB     161      PMPE     H11R     HAL2     0.900000E-01   1.00800           0   0.00000     -0.301140E-02
     19963 MEMB     161      PMPE     H11S     HAL2     0.900000E-01   1.00800           0   0.00000     -0.301140E-02
     19964 MEMB     161      PMPE     C212     CTL2    -0.180000       12.0110           0   0.00000     -0.301140E-02
     19965 MEMB     161      PMPE     H12R     HAL2     0.900000E-01   1.00800           0   0.00000     -0.301140E-02
     19966 MEMB     161      PMPE     H12S     HAL2     0.900000E-01   1.00800           0   0.00000     -0.301140E-02
     19967 MEMB     161      PMPE     C213     CTL2    -0.180000       12.0110           0   0.00000     -0.301140E-02
     19968 MEMB     161      PMPE     H13R     HAL2     0.900000E-01   1.00800           0   0.00000     -0.301140E-02
     19969 MEMB     161      PMPE     H13S     HAL2     0.900000E-01   1.00800           0   0.00000     -0.301140E-02
     19970 MEMB     161      PMPE     C214     CTL2    -0.180000       12.0110           0   0.00000     -0.301140E-02
     19971 MEMB     161      PMPE     H14R     HAL2     0.900000E-01   1.00800           0   0.00000     -0.301140E-02
     19972 MEMB     161      PMPE     H14S     HAL2     0.900000E-01   1.00800           0   0.00000     -0.301140E-02
     19973 MEMB     161      PMPE     C215     CTL2    -0.180000       12.0110           0   0.00000     -0.301140E-02
     19974 MEMB     161      PMPE     H15R     HAL2     0.900000E-01   1.00800           0   0.00000     -0.301140E-02
     19975 MEMB     161      PMPE     H15S     HAL2     0.900000E-01   1.00800           0   0.00000     -0.301140E-02
     19976 MEMB     161      PMPE     C216     CTL3    -0.270000       12.0110           0   0.00000     -0.301140E-02
     19977 MEMB     161      PMPE     H16R     HAL3     0.900000E-01   1.00800           0   0.00000     -0.301140E-02
     19978 MEMB     161      PMPE     H16S     HAL3     0.900000E-01   1.00800           0   0.00000     -0.301140E-02
     19979 MEMB     161      PMPE     H16T     HAL3     0.900000E-01   1.00800           0   0.00000     -0.301140E-02
     19980 MEMB     161      PMPE     C33      CTL2    -0.180000       12.0110           0   0.00000     -0.301140E-02
     19981 MEMB     161      PMPE     H3X      HAL2     0.900000E-01   1.00800           0   0.00000     -0.301140E-02
     19982 MEMB     161      PMPE     H3Y      HAL2     0.900000E-01   1.00800           0   0.00000     -0.301140E-02
     19983 MEMB     161      PMPE     C34      CTL2    -0.180000       12.0110           0   0.00000     -0.301140E-02
     19984 MEMB     161      PMPE     H4X      HAL2     0.900000E-01   1.00800           0   0.00000     -0.301140E-02
     19985 MEMB     161      PMPE     H4Y      HAL2     0.900000E-01   1.00800           0   0.00000     -0.301140E-02
     19986 MEMB     161      PMPE     C35      CTL2    -0.180000       12.0110           0   0.00000     -0.301140E-02
     19987 MEMB     161      PMPE     H5X      HAL2     0.900000E-01   1.00800           0   0.00000     -0.301140E-02
     19988 MEMB     161      PMPE     H5Y      HAL2     0.900000E-01   1.00800           0   0.00000     -0.301140E-02
     19989 MEMB     161      PMPE     C36      CTL2    -0.180000       12.0110           0   0.00000     -0.301140E-02
     19990 MEMB     161      PMPE     H6X      HAL2     0.900000E-01   1.00800           0   0.00000     -0.301140E-02
     19991 MEMB     161      PMPE     H6Y      HAL2     0.900000E-01   1.00800           0   0.00000     -0.301140E-02
     19992 MEMB     161      PMPE     C37      CTL2    -0.180000       12.0110           0   0.00000     -0.301140E-02
     19993 MEMB     161      PMPE     H7X      HAL2     0.900000E-01   1.00800           0   0.00000     -0.301140E-02
     19994 MEMB     161      PMPE     H7Y      HAL2     0.900000E-01   1.00800           0   0.00000     -0.301140E-02
     19995 MEMB     161      PMPE     C38      CTL2    -0.180000       12.0110           0   0.00000     -0.301140E-02
     19996 MEMB     161      PMPE     H8X      HAL2     0.900000E-01   1.00800           0   0.00000     -0.301140E-02
     19997 MEMB     161      PMPE     H8Y      HAL2     0.900000E-01   1.00800           0   0.00000     -0.301140E-02
     19998 MEMB     161      PMPE     C39      CTL2    -0.180000       12.0110           0   0.00000     -0.301140E-02
     19999 MEMB     161      PMPE     H9X      HAL2     0.900000E-01   1.00800           0   0.00000     -0.301140E-02
     20000 MEMB     161      PMPE     H9Y      HAL2     0.900000E-01   1.00800           0   0.00000     -0.301140E-02
     20001 MEMB     161      PMPE     C310     CTL2    -0.180000       12.0110           0   0.00000     -0.301140E-02
     20002 MEMB     161      PMPE     H10X     HAL2     0.900000E-01   1.00800           0   0.00000     -0.301140E-02
     20003 MEMB     161      PMPE     H10Y     HAL2     0.900000E-01   1.00800           0   0.00000     -0.301140E-02
     20004 MEMB     161      PMPE     C311     CTL2    -0.180000       12.0110           0   0.00000     -0.301140E-02
     20005 MEMB     161      PMPE     H11X     HAL2     0.900000E-01   1.00800           0   0.00000     -0.301140E-02
     20006 MEMB     161      PMPE     H11Y     HAL2     0.900000E-01   1.00800           0   0.00000     -0.301140E-02
     20007 MEMB     161      PMPE     C312     CTL2    -0.180000       12.0110           0   0.00000     -0.301140E-02
     20008 MEMB     161      PMPE     H12X     HAL2     0.900000E-01   1.00800           0   0.00000     -0.301140E-02
     20009 MEMB     161      PMPE     H12Y     HAL2     0.900000E-01   1.00800           0   0.00000     -0.301140E-02
     20010 MEMB     161      PMPE     C313     CTL2    -0.180000       12.0110           0   0.00000     -0.301140E-02
     20011 MEMB     161      PMPE     H13X     HAL2     0.900000E-01   1.00800           0   0.00000     -0.301140E-02
     20012 MEMB     161      PMPE     H13Y     HAL2     0.900000E-01   1.00800           0   0.00000     -0.301140E-02
     20013 MEMB     161      PMPE     C314     CTL2    -0.180000       12.0110           0   0.00000     -0.301140E-02
     20014 MEMB     161      PMPE     H14X     HAL2     0.900000E-01   1.00800           0   0.00000     -0.301140E-02
     20015 MEMB     161      PMPE     H14Y     HAL2     0.900000E-01   1.00800           0   0.00000     -0.301140E-02
     20016 MEMB     161      PMPE     C315     CTL2    -0.180000       12.0110           0   0.00000     -0.301140E-02
     20017 MEMB     161      PMPE     H15X     HAL2     0.900000E-01   1.00800           0   0.00000     -0.301140E-02
     20018 MEMB     161      PMPE     H15Y     HAL2     0.900000E-01   1.00800           0   0.00000     -0.301140E-02
     20019 MEMB     161      PMPE     C316     CTL3    -0.270000       12.0110           0   0.00000     -0.301140E-02
     20020 MEMB     161      PMPE     H16X     HAL3     0.900000E-01   1.00800           0   0.00000     -0.301140E-02
     20021 MEMB     161      PMPE     H16Y     HAL3     0.900000E-01   1.00800           0   0.00000     -0.301140E-02
     20022 MEMB     161      PMPE     H16Z     HAL3     0.900000E-01   1.00800           0   0.00000     -0.301140E-02
     20023 MEMB     162      QMPE     N        NH3L    -0.300000       14.0070           0   0.00000     -0.301140E-02
     20024 MEMB     162      QMPE     HN1      HCL      0.330000       1.00800           0   0.00000     -0.301140E-02
     20025 MEMB     162      QMPE     HN2      HCL      0.330000       1.00800           0   0.00000     -0.301140E-02
     20026 MEMB     162      QMPE     HN3      HCL      0.330000       1.00800           0   0.00000     -0.301140E-02
     20027 MEMB     162      QMPE     C12      CTL2     0.130000       12.0110           0   0.00000     -0.301140E-02
     20028 MEMB     162      QMPE     H12A     HAL2     0.900000E-01   1.00800           0   0.00000     -0.301140E-02
     20029 MEMB     162      QMPE     H12B     HAL2     0.900000E-01   1.00800           0   0.00000     -0.301140E-02
     20030 MEMB     162      QMPE     C11      CTL2    -0.800000E-01   12.0110           0   0.00000     -0.301140E-02
     20031 MEMB     162      QMPE     H11A     HAL2     0.900000E-01   1.00800           0   0.00000     -0.301140E-02
     20032 MEMB     162      QMPE     H11B     HAL2     0.900000E-01   1.00800           0   0.00000     -0.301140E-02
     20033 MEMB     162      QMPE     P        PL        1.50000       30.9740           0   0.00000     -0.301140E-02
     20034 MEMB     162      QMPE     O13      O2L     -0.780000       15.9994           0   0.00000     -0.301140E-02
     20035 MEMB     162      QMPE     O14      O2L     -0.780000       15.9994           0   0.00000     -0.301140E-02
     20036 MEMB     162      QMPE     O11      OSLP    -0.570000       15.9994           0   0.00000     -0.301140E-02
     20037 MEMB     162      QMPE     O12      OSLP    -0.570000       15.9994           0   0.00000     -0.301140E-02
     20038 MEMB     162      QMPE     C1       CTL2    -0.800000E-01   12.0110           0   0.00000     -0.301140E-02
     20039 MEMB     162      QMPE     HA       HAL2     0.900000E-01   1.00800           0   0.00000     -0.301140E-02
     20040 MEMB     162      QMPE     HB       HAL2     0.900000E-01   1.00800           0   0.00000     -0.301140E-02
     20041 MEMB     162      QMPE     C2       CTL1     0.170000       12.0110           0   0.00000     -0.301140E-02
     20042 MEMB     162      QMPE     HS       HAL1     0.900000E-01   1.00800           0   0.00000     -0.301140E-02
     20043 MEMB     162      QMPE     O21      OSL     -0.490000       15.9994           0   0.00000     -0.301140E-02
     20044 MEMB     162      QMPE     C21      CL       0.900000       12.0110           0   0.00000     -0.301140E-02
     20045 MEMB     162      QMPE     O22      OBL     -0.630000       15.9994           0   0.00000     -0.301140E-02
     20046 MEMB     162      QMPE     C22      CTL2    -0.220000       12.0110           0   0.00000     -0.301140E-02
     20047 MEMB     162      QMPE     H2R      HAL2     0.900000E-01   1.00800           0   0.00000     -0.301140E-02
     20048 MEMB     162      QMPE     H2S      HAL2     0.900000E-01   1.00800           0   0.00000     -0.301140E-02
     20049 MEMB     162      QMPE     C3       CTL2     0.800000E-01   12.0110           0   0.00000     -0.301140E-02
     20050 MEMB     162      QMPE     HX       HAL2     0.900000E-01   1.00800           0   0.00000     -0.301140E-02
     20051 MEMB     162      QMPE     HY       HAL2     0.900000E-01   1.00800           0   0.00000     -0.301140E-02
     20052 MEMB     162      QMPE     O31      OSL     -0.490000       15.9994           0   0.00000     -0.301140E-02
     20053 MEMB     162      QMPE     C31      CL       0.900000       12.0110           0   0.00000     -0.301140E-02
     20054 MEMB     162      QMPE     O32      OBL     -0.630000       15.9994           0   0.00000     -0.301140E-02
     20055 MEMB     162      QMPE     C32      CTL2    -0.220000       12.0110           0   0.00000     -0.301140E-02
     20056 MEMB     162      QMPE     H2X      HAL2     0.900000E-01   1.00800           0   0.00000     -0.301140E-02
     20057 MEMB     162      QMPE     H2Y      HAL2     0.900000E-01   1.00800           0   0.00000     -0.301140E-02
     20058 MEMB     162      QMPE     C23      CTL2    -0.180000       12.0110           0   0.00000     -0.301140E-02
     20059 MEMB     162      QMPE     H3R      HAL2     0.900000E-01   1.00800           0   0.00000     -0.301140E-02
     20060 MEMB     162      QMPE     H3S      HAL2     0.900000E-01   1.00800           0   0.00000     -0.301140E-02
     20061 MEMB     162      QMPE     C24      CTL2    -0.180000       12.0110           0   0.00000     -0.301140E-02
     20062 MEMB     162      QMPE     H4R      HAL2     0.900000E-01   1.00800           0   0.00000     -0.301140E-02
     20063 MEMB     162      QMPE     H4S      HAL2     0.900000E-01   1.00800           0   0.00000     -0.301140E-02
     20064 MEMB     162      QMPE     C25      CTL2    -0.180000       12.0110           0   0.00000     -0.301140E-02
     20065 MEMB     162      QMPE     H5R      HAL2     0.900000E-01   1.00800           0   0.00000     -0.301140E-02
     20066 MEMB     162      QMPE     H5S      HAL2     0.900000E-01   1.00800           0   0.00000     -0.301140E-02
     20067 MEMB     162      QMPE     C26      CTL2    -0.180000       12.0110           0   0.00000     -0.301140E-02
     20068 MEMB     162      QMPE     H6R      HAL2     0.900000E-01   1.00800           0   0.00000     -0.301140E-02
     20069 MEMB     162      QMPE     H6S      HAL2     0.900000E-01   1.00800           0   0.00000     -0.301140E-02
     20070 MEMB     162      QMPE     C27      CTL2    -0.180000       12.0110           0   0.00000     -0.301140E-02
     20071 MEMB     162      QMPE     H7R      HAL2     0.900000E-01   1.00800           0   0.00000     -0.301140E-02
     20072 MEMB     162      QMPE     H7S      HAL2     0.900000E-01   1.00800           0   0.00000     -0.301140E-02
     20073 MEMB     162      QMPE     C28      CTL2    -0.180000       12.0110           0   0.00000     -0.301140E-02
     20074 MEMB     162      QMPE     H8R      HAL2     0.900000E-01   1.00800           0   0.00000     -0.301140E-02
     20075 MEMB     162      QMPE     H8S      HAL2     0.900000E-01   1.00800           0   0.00000     -0.301140E-02
     20076 MEMB     162      QMPE     C29      CG3RC1  -0.900000E-01   12.0110           0   0.00000     -0.301140E-02
     20077 MEMB     162      QMPE     H9R      HGA1     0.900000E-01   1.00800           0   0.00000     -0.301140E-02
     20078 MEMB     162      QMPE     C217     CG3C31  -0.180000       12.0110           0   0.00000     -0.301140E-02
     20079 MEMB     162      QMPE     H17R     HGA2     0.900000E-01   1.00800           0   0.00000     -0.301140E-02
     20080 MEMB     162      QMPE     H17S     HGA2     0.900000E-01   1.00800           0   0.00000     -0.301140E-02
     20081 MEMB     162      QMPE     C210     CG3RC1  -0.900000E-01   12.0110           0   0.00000     -0.301140E-02
     20082 MEMB     162      QMPE     H10R     HGA1     0.900000E-01   1.00800           0   0.00000     -0.301140E-02
     20083 MEMB     162      QMPE     C211     CTL2    -0.180000       12.0110           0   0.00000     -0.301140E-02
     20084 MEMB     162      QMPE     H11R     HAL2     0.900000E-01   1.00800           0   0.00000     -0.301140E-02
     20085 MEMB     162      QMPE     H11S     HAL2     0.900000E-01   1.00800           0   0.00000     -0.301140E-02
     20086 MEMB     162      QMPE     C212     CTL2    -0.180000       12.0110           0   0.00000     -0.301140E-02
     20087 MEMB     162      QMPE     H12R     HAL2     0.900000E-01   1.00800           0   0.00000     -0.301140E-02
     20088 MEMB     162      QMPE     H12S     HAL2     0.900000E-01   1.00800           0   0.00000     -0.301140E-02
     20089 MEMB     162      QMPE     C213     CTL2    -0.180000       12.0110           0   0.00000     -0.301140E-02
     20090 MEMB     162      QMPE     H13R     HAL2     0.900000E-01   1.00800           0   0.00000     -0.301140E-02
     20091 MEMB     162      QMPE     H13S     HAL2     0.900000E-01   1.00800           0   0.00000     -0.301140E-02
     20092 MEMB     162      QMPE     C214     CTL2    -0.180000       12.0110           0   0.00000     -0.301140E-02
     20093 MEMB     162      QMPE     H14R     HAL2     0.900000E-01   1.00800           0   0.00000     -0.301140E-02
     20094 MEMB     162      QMPE     H14S     HAL2     0.900000E-01   1.00800           0   0.00000     -0.301140E-02
     20095 MEMB     162      QMPE     C215     CTL2    -0.180000       12.0110           0   0.00000     -0.301140E-02
     20096 MEMB     162      QMPE     H15R     HAL2     0.900000E-01   1.00800           0   0.00000     -0.301140E-02
     20097 MEMB     162      QMPE     H15S     HAL2     0.900000E-01   1.00800           0   0.00000     -0.301140E-02
     20098 MEMB     162      QMPE     C216     CTL3    -0.270000       12.0110           0   0.00000     -0.301140E-02
     20099 MEMB     162      QMPE     H16R     HAL3     0.900000E-01   1.00800           0   0.00000     -0.301140E-02
     20100 MEMB     162      QMPE     H16S     HAL3     0.900000E-01   1.00800           0   0.00000     -0.301140E-02
     20101 MEMB     162      QMPE     H16T     HAL3     0.900000E-01   1.00800           0   0.00000     -0.301140E-02
     20102 MEMB     162      QMPE     C33      CTL2    -0.180000       12.0110           0   0.00000     -0.301140E-02
     20103 MEMB     162      QMPE     H3X      HAL2     0.900000E-01   1.00800           0   0.00000     -0.301140E-02
     20104 MEMB     162      QMPE     H3Y      HAL2     0.900000E-01   1.00800           0   0.00000     -0.301140E-02
     20105 MEMB     162      QMPE     C34      CTL2    -0.180000       12.0110           0   0.00000     -0.301140E-02
     20106 MEMB     162      QMPE     H4X      HAL2     0.900000E-01   1.00800           0   0.00000     -0.301140E-02
     20107 MEMB     162      QMPE     H4Y      HAL2     0.900000E-01   1.00800           0   0.00000     -0.301140E-02
     20108 MEMB     162      QMPE     C35      CTL2    -0.180000       12.0110           0   0.00000     -0.301140E-02
     20109 MEMB     162      QMPE     H5X      HAL2     0.900000E-01   1.00800           0   0.00000     -0.301140E-02
     20110 MEMB     162      QMPE     H5Y      HAL2     0.900000E-01   1.00800           0   0.00000     -0.301140E-02
     20111 MEMB     162      QMPE     C36      CTL2    -0.180000       12.0110           0   0.00000     -0.301140E-02
     20112 MEMB     162      QMPE     H6X      HAL2     0.900000E-01   1.00800           0   0.00000     -0.301140E-02
     20113 MEMB     162      QMPE     H6Y      HAL2     0.900000E-01   1.00800           0   0.00000     -0.301140E-02
     20114 MEMB     162      QMPE     C37      CTL2    -0.180000       12.0110           0   0.00000     -0.301140E-02
     20115 MEMB     162      QMPE     H7X      HAL2     0.900000E-01   1.00800           0   0.00000     -0.301140E-02
     20116 MEMB     162      QMPE     H7Y      HAL2     0.900000E-01   1.00800           0   0.00000     -0.301140E-02
     20117 MEMB     162      QMPE     C38      CTL2    -0.180000       12.0110           0   0.00000     -0.301140E-02
     20118 MEMB     162      QMPE     H8X      HAL2     0.900000E-01   1.00800           0   0.00000     -0.301140E-02
     20119 MEMB     162      QMPE     H8Y      HAL2     0.900000E-01   1.00800           0   0.00000     -0.301140E-02
     20120 MEMB     162      QMPE     C39      CTL2    -0.180000       12.0110           0   0.00000     -0.301140E-02
     20121 MEMB     162      QMPE     H9X      HAL2     0.900000E-01   1.00800           0   0.00000     -0.301140E-02
     20122 MEMB     162      QMPE     H9Y      HAL2     0.900000E-01   1.00800           0   0.00000     -0.301140E-02
     20123 MEMB     162      QMPE     C310     CTL2    -0.180000       12.0110           0   0.00000     -0.301140E-02
     20124 MEMB     162      QMPE     H10X     HAL2     0.900000E-01   1.00800           0   0.00000     -0.301140E-02
     20125 MEMB     162      QMPE     H10Y     HAL2     0.900000E-01   1.00800           0   0.00000     -0.301140E-02
     20126 MEMB     162      QMPE     C311     CTL2    -0.180000       12.0110           0   0.00000     -0.301140E-02
     20127 MEMB     162      QMPE     H11X     HAL2     0.900000E-01   1.00800           0   0.00000     -0.301140E-02
     20128 MEMB     162      QMPE     H11Y     HAL2     0.900000E-01   1.00800           0   0.00000     -0.301140E-02
     20129 MEMB     162      QMPE     C312     CTL2    -0.180000       12.0110           0   0.00000     -0.301140E-02
     20130 MEMB     162      QMPE     H12X     HAL2     0.900000E-01   1.00800           0   0.00000     -0.301140E-02
     20131 MEMB     162      QMPE     H12Y     HAL2     0.900000E-01   1.00800           0   0.00000     -0.301140E-02
     20132 MEMB     162      QMPE     C313     CTL2    -0.180000       12.0110           0   0.00000     -0.301140E-02
     20133 MEMB     162      QMPE     H13X     HAL2     0.900000E-01   1.00800           0   0.00000     -0.301140E-02
     20134 MEMB     162      QMPE     H13Y     HAL2     0.900000E-01   1.00800           0   0.00000     -0.301140E-02
     20135 MEMB     162      QMPE     C314     CTL2    -0.180000       12.0110           0   0.00000     -0.301140E-02
     20136 MEMB     162      QMPE     H14X     HAL2     0.900000E-01   1.00800           0   0.00000     -0.301140E-02
     20137 MEMB     162      QMPE     H14Y     HAL2     0.900000E-01   1.00800           0   0.00000     -0.301140E-02
     20138 MEMB     162      QMPE     C315     CTL3    -0.270000       12.0110           0   0.00000     -0.301140E-02
     20139 MEMB     162      QMPE     H15X     HAL3     0.900000E-01   1.00800           0   0.00000     -0.301140E-02
     20140 MEMB     162      QMPE     H15Y     HAL3     0.900000E-01   1.00800           0   0.00000     -0.301140E-02
     20141 MEMB     162      QMPE     H15Z     HAL3     0.900000E-01   1.00800           0   0.00000     -0.301140E-02
     20142 MEMB     163      PYPG     C13      CTL2     0.500000E-01   12.0110           0   0.00000     -0.301140E-02
     20143 MEMB     163      PYPG     H13A     HAL2     0.900000E-01   1.00800           0   0.00000     -0.301140E-02
     20144 MEMB     163      PYPG     H13B     HAL2     0.900000E-01   1.00800           0   0.00000     -0.301140E-02
     20145 MEMB     163      PYPG     OC3      OHL     -0.660000       15.9994           0   0.00000     -0.301140E-02
     20146 MEMB     163      PYPG     HO3      HOL      0.430000       1.00800           0   0.00000     -0.301140E-02
     20147 MEMB     163      PYPG     C12      CTL1     0.140000       12.0110           0   0.00000     -0.301140E-02
     20148 MEMB     163      PYPG     H12A     HAL1     0.900000E-01   1.00800           0   0.00000     -0.301140E-02
     20149 MEMB     163      PYPG     OC2      OHL     -0.660000       15.9994           0   0.00000     -0.301140E-02
     20150 MEMB     163      PYPG     HO2      HOL      0.430000       1.00800           0   0.00000     -0.301140E-02
     20151 MEMB     163      PYPG     C11      CTL2    -0.800000E-01   12.0110           0   0.00000     -0.301140E-02
     20152 MEMB     163      PYPG     H11A     HAL2     0.900000E-01   1.00800           0   0.00000     -0.301140E-02
     20153 MEMB     163      PYPG     H11B     HAL2     0.900000E-01   1.00800           0   0.00000     -0.301140E-02
     20154 MEMB     163      PYPG     P        PL        1.50000       30.9740           0   0.00000     -0.301140E-02
     20155 MEMB     163      PYPG     O13      O2L     -0.780000       15.9994           0   0.00000     -0.301140E-02
     20156 MEMB     163      PYPG     O14      O2L     -0.780000       15.9994           0   0.00000     -0.301140E-02
     20157 MEMB     163      PYPG     O11      OSLP    -0.570000       15.9994           0   0.00000     -0.301140E-02
     20158 MEMB     163      PYPG     O12      OSLP    -0.570000       15.9994           0   0.00000     -0.301140E-02
     20159 MEMB     163      PYPG     C1       CTL2    -0.800000E-01   12.0110           0   0.00000     -0.301140E-02
     20160 MEMB     163      PYPG     HA       HAL2     0.900000E-01   1.00800           0   0.00000     -0.301140E-02
     20161 MEMB     163      PYPG     HB       HAL2     0.900000E-01   1.00800           0   0.00000     -0.301140E-02
     20162 MEMB     163      PYPG     C2       CTL1     0.170000       12.0110           0   0.00000     -0.301140E-02
     20163 MEMB     163      PYPG     HS       HAL1     0.900000E-01   1.00800           0   0.00000     -0.301140E-02
     20164 MEMB     163      PYPG     O21      OSL     -0.490000       15.9994           0   0.00000     -0.301140E-02
     20165 MEMB     163      PYPG     C21      CL       0.900000       12.0110           0   0.00000     -0.301140E-02
     20166 MEMB     163      PYPG     O22      OBL     -0.630000       15.9994           0   0.00000     -0.301140E-02
     20167 MEMB     163      PYPG     C22      CTL2    -0.220000       12.0110           0   0.00000     -0.301140E-02
     20168 MEMB     163      PYPG     H2R      HAL2     0.900000E-01   1.00800           0   0.00000     -0.301140E-02
     20169 MEMB     163      PYPG     H2S      HAL2     0.900000E-01   1.00800           0   0.00000     -0.301140E-02
     20170 MEMB     163      PYPG     C3       CTL2     0.800000E-01   12.0110           0   0.00000     -0.301140E-02
     20171 MEMB     163      PYPG     HX       HAL2     0.900000E-01   1.00800           0   0.00000     -0.301140E-02
     20172 MEMB     163      PYPG     HY       HAL2     0.900000E-01   1.00800           0   0.00000     -0.301140E-02
     20173 MEMB     163      PYPG     O31      OSL     -0.490000       15.9994           0   0.00000     -0.301140E-02
     20174 MEMB     163      PYPG     C31      CL       0.900000       12.0110           0   0.00000     -0.301140E-02
     20175 MEMB     163      PYPG     O32      OBL     -0.630000       15.9994           0   0.00000     -0.301140E-02
     20176 MEMB     163      PYPG     C32      CTL2    -0.220000       12.0110           0   0.00000     -0.301140E-02
     20177 MEMB     163      PYPG     H2X      HAL2     0.900000E-01   1.00800           0   0.00000     -0.301140E-02
     20178 MEMB     163      PYPG     H2Y      HAL2     0.900000E-01   1.00800           0   0.00000     -0.301140E-02
     20179 MEMB     163      PYPG     C23      CTL2    -0.180000       12.0110           0   0.00000     -0.301140E-02
     20180 MEMB     163      PYPG     H3R      HAL2     0.900000E-01   1.00800           0   0.00000     -0.301140E-02
     20181 MEMB     163      PYPG     H3S      HAL2     0.900000E-01   1.00800           0   0.00000     -0.301140E-02
     20182 MEMB     163      PYPG     C24      CTL2    -0.180000       12.0110           0   0.00000     -0.301140E-02
     20183 MEMB     163      PYPG     H4R      HAL2     0.900000E-01   1.00800           0   0.00000     -0.301140E-02
     20184 MEMB     163      PYPG     H4S      HAL2     0.900000E-01   1.00800           0   0.00000     -0.301140E-02
     20185 MEMB     163      PYPG     C25      CTL2    -0.180000       12.0110           0   0.00000     -0.301140E-02
     20186 MEMB     163      PYPG     H5R      HAL2     0.900000E-01   1.00800           0   0.00000     -0.301140E-02
     20187 MEMB     163      PYPG     H5S      HAL2     0.900000E-01   1.00800           0   0.00000     -0.301140E-02
     20188 MEMB     163      PYPG     C26      CTL2    -0.180000       12.0110           0   0.00000     -0.301140E-02
     20189 MEMB     163      PYPG     H6R      HAL2     0.900000E-01   1.00800           0   0.00000     -0.301140E-02
     20190 MEMB     163      PYPG     H6S      HAL2     0.900000E-01   1.00800           0   0.00000     -0.301140E-02
     20191 MEMB     163      PYPG     C27      CTL2    -0.180000       12.0110           0   0.00000     -0.301140E-02
     20192 MEMB     163      PYPG     H7R      HAL2     0.900000E-01   1.00800           0   0.00000     -0.301140E-02
     20193 MEMB     163      PYPG     H7S      HAL2     0.900000E-01   1.00800           0   0.00000     -0.301140E-02
     20194 MEMB     163      PYPG     C28      CTL2    -0.180000       12.0110           0   0.00000     -0.301140E-02
     20195 MEMB     163      PYPG     H8R      HAL2     0.900000E-01   1.00800           0   0.00000     -0.301140E-02
     20196 MEMB     163      PYPG     H8S      HAL2     0.900000E-01   1.00800           0   0.00000     -0.301140E-02
     20197 MEMB     163      PYPG     C29      CEL1    -0.150000       12.0110           0   0.00000     -0.301140E-02
     20198 MEMB     163      PYPG     H9R      HEL1     0.150000       1.00800           0   0.00000     -0.301140E-02
     20199 MEMB     163      PYPG     C210     CEL1    -0.150000       12.0110           0   0.00000     -0.301140E-02
     20200 MEMB     163      PYPG     H10R     HEL1     0.150000       1.00800           0   0.00000     -0.301140E-02
     20201 MEMB     163      PYPG     C211     CTL2    -0.180000       12.0110           0   0.00000     -0.301140E-02
     20202 MEMB     163      PYPG     H11R     HAL2     0.900000E-01   1.00800           0   0.00000     -0.301140E-02
     20203 MEMB     163      PYPG     H11S     HAL2     0.900000E-01   1.00800           0   0.00000     -0.301140E-02
     20204 MEMB     163      PYPG     C212     CTL2    -0.180000       12.0110           0   0.00000     -0.301140E-02
     20205 MEMB     163      PYPG     H12R     HAL2     0.900000E-01   1.00800           0   0.00000     -0.301140E-02
     20206 MEMB     163      PYPG     H12S     HAL2     0.900000E-01   1.00800           0   0.00000     -0.301140E-02
     20207 MEMB     163      PYPG     C213     CTL2    -0.180000       12.0110           0   0.00000     -0.301140E-02
     20208 MEMB     163      PYPG     H13R     HAL2     0.900000E-01   1.00800           0   0.00000     -0.301140E-02
     20209 MEMB     163      PYPG     H13S     HAL2     0.900000E-01   1.00800           0   0.00000     -0.301140E-02
     20210 MEMB     163      PYPG     C214     CTL2    -0.180000       12.0110           0   0.00000     -0.301140E-02
     20211 MEMB     163      PYPG     H14R     HAL2     0.900000E-01   1.00800           0   0.00000     -0.301140E-02
     20212 MEMB     163      PYPG     H14S     HAL2     0.900000E-01   1.00800           0   0.00000     -0.301140E-02
     20213 MEMB     163      PYPG     C215     CTL2    -0.180000       12.0110           0   0.00000     -0.301140E-02
     20214 MEMB     163      PYPG     H15R     HAL2     0.900000E-01   1.00800           0   0.00000     -0.301140E-02
     20215 MEMB     163      PYPG     H15S     HAL2     0.900000E-01   1.00800           0   0.00000     -0.301140E-02
     20216 MEMB     163      PYPG     C216     CTL3    -0.270000       12.0110           0   0.00000     -0.301140E-02
     20217 MEMB     163      PYPG     H16R     HAL3     0.900000E-01   1.00800           0   0.00000     -0.301140E-02
     20218 MEMB     163      PYPG     H16S     HAL3     0.900000E-01   1.00800           0   0.00000     -0.301140E-02
     20219 MEMB     163      PYPG     H16T     HAL3     0.900000E-01   1.00800           0   0.00000     -0.301140E-02
     20220 MEMB     163      PYPG     C33      CTL2    -0.180000       12.0110           0   0.00000     -0.301140E-02
     20221 MEMB     163      PYPG     H3X      HAL2     0.900000E-01   1.00800           0   0.00000     -0.301140E-02
     20222 MEMB     163      PYPG     H3Y      HAL2     0.900000E-01   1.00800           0   0.00000     -0.301140E-02
     20223 MEMB     163      PYPG     C34      CTL2    -0.180000       12.0110           0   0.00000     -0.301140E-02
     20224 MEMB     163      PYPG     H4X      HAL2     0.900000E-01   1.00800           0   0.00000     -0.301140E-02
     20225 MEMB     163      PYPG     H4Y      HAL2     0.900000E-01   1.00800           0   0.00000     -0.301140E-02
     20226 MEMB     163      PYPG     C35      CTL2    -0.180000       12.0110           0   0.00000     -0.301140E-02
     20227 MEMB     163      PYPG     H5X      HAL2     0.900000E-01   1.00800           0   0.00000     -0.301140E-02
     20228 MEMB     163      PYPG     H5Y      HAL2     0.900000E-01   1.00800           0   0.00000     -0.301140E-02
     20229 MEMB     163      PYPG     C36      CTL2    -0.180000       12.0110           0   0.00000     -0.301140E-02
     20230 MEMB     163      PYPG     H6X      HAL2     0.900000E-01   1.00800           0   0.00000     -0.301140E-02
     20231 MEMB     163      PYPG     H6Y      HAL2     0.900000E-01   1.00800           0   0.00000     -0.301140E-02
     20232 MEMB     163      PYPG     C37      CTL2    -0.180000       12.0110           0   0.00000     -0.301140E-02
     20233 MEMB     163      PYPG     H7X      HAL2     0.900000E-01   1.00800           0   0.00000     -0.301140E-02
     20234 MEMB     163      PYPG     H7Y      HAL2     0.900000E-01   1.00800           0   0.00000     -0.301140E-02
     20235 MEMB     163      PYPG     C38      CTL2    -0.180000       12.0110           0   0.00000     -0.301140E-02
     20236 MEMB     163      PYPG     H8X      HAL2     0.900000E-01   1.00800           0   0.00000     -0.301140E-02
     20237 MEMB     163      PYPG     H8Y      HAL2     0.900000E-01   1.00800           0   0.00000     -0.301140E-02
     20238 MEMB     163      PYPG     C39      CTL2    -0.180000       12.0110           0   0.00000     -0.301140E-02
     20239 MEMB     163      PYPG     H9X      HAL2     0.900000E-01   1.00800           0   0.00000     -0.301140E-02
     20240 MEMB     163      PYPG     H9Y      HAL2     0.900000E-01   1.00800           0   0.00000     -0.301140E-02
     20241 MEMB     163      PYPG     C310     CTL2    -0.180000       12.0110           0   0.00000     -0.301140E-02
     20242 MEMB     163      PYPG     H10X     HAL2     0.900000E-01   1.00800           0   0.00000     -0.301140E-02
     20243 MEMB     163      PYPG     H10Y     HAL2     0.900000E-01   1.00800           0   0.00000     -0.301140E-02
     20244 MEMB     163      PYPG     C311     CTL2    -0.180000       12.0110           0   0.00000     -0.301140E-02
     20245 MEMB     163      PYPG     H11X     HAL2     0.900000E-01   1.00800           0   0.00000     -0.301140E-02
     20246 MEMB     163      PYPG     H11Y     HAL2     0.900000E-01   1.00800           0   0.00000     -0.301140E-02
     20247 MEMB     163      PYPG     C312     CTL2    -0.180000       12.0110           0   0.00000     -0.301140E-02
     20248 MEMB     163      PYPG     H12X     HAL2     0.900000E-01   1.00800           0   0.00000     -0.301140E-02
     20249 MEMB     163      PYPG     H12Y     HAL2     0.900000E-01   1.00800           0   0.00000     -0.301140E-02
     20250 MEMB     163      PYPG     C313     CTL2    -0.180000       12.0110           0   0.00000     -0.301140E-02
     20251 MEMB     163      PYPG     H13X     HAL2     0.900000E-01   1.00800           0   0.00000     -0.301140E-02
     20252 MEMB     163      PYPG     H13Y     HAL2     0.900000E-01   1.00800           0   0.00000     -0.301140E-02
     20253 MEMB     163      PYPG     C314     CTL2    -0.180000       12.0110           0   0.00000     -0.301140E-02
     20254 MEMB     163      PYPG     H14X     HAL2     0.900000E-01   1.00800           0   0.00000     -0.301140E-02
     20255 MEMB     163      PYPG     H14Y     HAL2     0.900000E-01   1.00800           0   0.00000     -0.301140E-02
     20256 MEMB     163      PYPG     C315     CTL2    -0.180000       12.0110           0   0.00000     -0.301140E-02
     20257 MEMB     163      PYPG     H15X     HAL2     0.900000E-01   1.00800           0   0.00000     -0.301140E-02
     20258 MEMB     163      PYPG     H15Y     HAL2     0.900000E-01   1.00800           0   0.00000     -0.301140E-02
     20259 MEMB     163      PYPG     C316     CTL3    -0.270000       12.0110           0   0.00000     -0.301140E-02
     20260 MEMB     163      PYPG     H16X     HAL3     0.900000E-01   1.00800           0   0.00000     -0.301140E-02
     20261 MEMB     163      PYPG     H16Y     HAL3     0.900000E-01   1.00800           0   0.00000     -0.301140E-02
     20262 MEMB     163      PYPG     H16Z     HAL3     0.900000E-01   1.00800           0   0.00000     -0.301140E-02
     20263 MEMB     164      PMPG     C13      CTL2     0.500000E-01   12.0110           0   0.00000     -0.301140E-02
     20264 MEMB     164      PMPG     H13A     HAL2     0.900000E-01   1.00800           0   0.00000     -0.301140E-02
     20265 MEMB     164      PMPG     H13B     HAL2     0.900000E-01   1.00800           0   0.00000     -0.301140E-02
     20266 MEMB     164      PMPG     OC3      OHL     -0.660000       15.9994           0   0.00000     -0.301140E-02
     20267 MEMB     164      PMPG     HO3      HOL      0.430000       1.00800           0   0.00000     -0.301140E-02
     20268 MEMB     164      PMPG     C12      CTL1     0.140000       12.0110           0   0.00000     -0.301140E-02
     20269 MEMB     164      PMPG     H12A     HAL1     0.900000E-01   1.00800           0   0.00000     -0.301140E-02
     20270 MEMB     164      PMPG     OC2      OHL     -0.660000       15.9994           0   0.00000     -0.301140E-02
     20271 MEMB     164      PMPG     HO2      HOL      0.430000       1.00800           0   0.00000     -0.301140E-02
     20272 MEMB     164      PMPG     C11      CTL2    -0.800000E-01   12.0110           0   0.00000     -0.301140E-02
     20273 MEMB     164      PMPG     H11A     HAL2     0.900000E-01   1.00800           0   0.00000     -0.301140E-02
     20274 MEMB     164      PMPG     H11B     HAL2     0.900000E-01   1.00800           0   0.00000     -0.301140E-02
     20275 MEMB     164      PMPG     P        PL        1.50000       30.9740           0   0.00000     -0.301140E-02
     20276 MEMB     164      PMPG     O13      O2L     -0.780000       15.9994           0   0.00000     -0.301140E-02
     20277 MEMB     164      PMPG     O14      O2L     -0.780000       15.9994           0   0.00000     -0.301140E-02
     20278 MEMB     164      PMPG     O11      OSLP    -0.570000       15.9994           0   0.00000     -0.301140E-02
     20279 MEMB     164      PMPG     O12      OSLP    -0.570000       15.9994           0   0.00000     -0.301140E-02
     20280 MEMB     164      PMPG     C1       CTL2    -0.800000E-01   12.0110           0   0.00000     -0.301140E-02
     20281 MEMB     164      PMPG     HA       HAL2     0.900000E-01   1.00800           0   0.00000     -0.301140E-02
     20282 MEMB     164      PMPG     HB       HAL2     0.900000E-01   1.00800           0   0.00000     -0.301140E-02
     20283 MEMB     164      PMPG     C2       CTL1     0.170000       12.0110           0   0.00000     -0.301140E-02
     20284 MEMB     164      PMPG     HS       HAL1     0.900000E-01   1.00800           0   0.00000     -0.301140E-02
     20285 MEMB     164      PMPG     O21      OSL     -0.490000       15.9994           0   0.00000     -0.301140E-02
     20286 MEMB     164      PMPG     C21      CL       0.900000       12.0110           0   0.00000     -0.301140E-02
     20287 MEMB     164      PMPG     O22      OBL     -0.630000       15.9994           0   0.00000     -0.301140E-02
     20288 MEMB     164      PMPG     C22      CTL2    -0.220000       12.0110           0   0.00000     -0.301140E-02
     20289 MEMB     164      PMPG     H2R      HAL2     0.900000E-01   1.00800           0   0.00000     -0.301140E-02
     20290 MEMB     164      PMPG     H2S      HAL2     0.900000E-01   1.00800           0   0.00000     -0.301140E-02
     20291 MEMB     164      PMPG     C3       CTL2     0.800000E-01   12.0110           0   0.00000     -0.301140E-02
     20292 MEMB     164      PMPG     HX       HAL2     0.900000E-01   1.00800           0   0.00000     -0.301140E-02
     20293 MEMB     164      PMPG     HY       HAL2     0.900000E-01   1.00800           0   0.00000     -0.301140E-02
     20294 MEMB     164      PMPG     O31      OSL     -0.490000       15.9994           0   0.00000     -0.301140E-02
     20295 MEMB     164      PMPG     C31      CL       0.900000       12.0110           0   0.00000     -0.301140E-02
     20296 MEMB     164      PMPG     O32      OBL     -0.630000       15.9994           0   0.00000     -0.301140E-02
     20297 MEMB     164      PMPG     C32      CTL2    -0.220000       12.0110           0   0.00000     -0.301140E-02
     20298 MEMB     164      PMPG     H2X      HAL2     0.900000E-01   1.00800           0   0.00000     -0.301140E-02
     20299 MEMB     164      PMPG     H2Y      HAL2     0.900000E-01   1.00800           0   0.00000     -0.301140E-02
     20300 MEMB     164      PMPG     C23      CTL2    -0.180000       12.0110           0   0.00000     -0.301140E-02
     20301 MEMB     164      PMPG     H3R      HAL2     0.900000E-01   1.00800           0   0.00000     -0.301140E-02
     20302 MEMB     164      PMPG     H3S      HAL2     0.900000E-01   1.00800           0   0.00000     -0.301140E-02
     20303 MEMB     164      PMPG     C24      CTL2    -0.180000       12.0110           0   0.00000     -0.301140E-02
     20304 MEMB     164      PMPG     H4R      HAL2     0.900000E-01   1.00800           0   0.00000     -0.301140E-02
     20305 MEMB     164      PMPG     H4S      HAL2     0.900000E-01   1.00800           0   0.00000     -0.301140E-02
     20306 MEMB     164      PMPG     C25      CTL2    -0.180000       12.0110           0   0.00000     -0.301140E-02
     20307 MEMB     164      PMPG     H5R      HAL2     0.900000E-01   1.00800           0   0.00000     -0.301140E-02
     20308 MEMB     164      PMPG     H5S      HAL2     0.900000E-01   1.00800           0   0.00000     -0.301140E-02
     20309 MEMB     164      PMPG     C26      CTL2    -0.180000       12.0110           0   0.00000     -0.301140E-02
     20310 MEMB     164      PMPG     H6R      HAL2     0.900000E-01   1.00800           0   0.00000     -0.301140E-02
     20311 MEMB     164      PMPG     H6S      HAL2     0.900000E-01   1.00800           0   0.00000     -0.301140E-02
     20312 MEMB     164      PMPG     C27      CTL2    -0.180000       12.0110           0   0.00000     -0.301140E-02
     20313 MEMB     164      PMPG     H7R      HAL2     0.900000E-01   1.00800           0   0.00000     -0.301140E-02
     20314 MEMB     164      PMPG     H7S      HAL2     0.900000E-01   1.00800           0   0.00000     -0.301140E-02
     20315 MEMB     164      PMPG     C28      CTL2    -0.180000       12.0110           0   0.00000     -0.301140E-02
     20316 MEMB     164      PMPG     H8R      HAL2     0.900000E-01   1.00800           0   0.00000     -0.301140E-02
     20317 MEMB     164      PMPG     H8S      HAL2     0.900000E-01   1.00800           0   0.00000     -0.301140E-02
     20318 MEMB     164      PMPG     C29      CG3RC1  -0.900000E-01   12.0110           0   0.00000     -0.301140E-02
     20319 MEMB     164      PMPG     H9R      HGA1     0.900000E-01   1.00800           0   0.00000     -0.301140E-02
     20320 MEMB     164      PMPG     C217     CG3C31  -0.180000       12.0110           0   0.00000     -0.301140E-02
     20321 MEMB     164      PMPG     H17R     HGA2     0.900000E-01   1.00800           0   0.00000     -0.301140E-02
     20322 MEMB     164      PMPG     H17S     HGA2     0.900000E-01   1.00800           0   0.00000     -0.301140E-02
     20323 MEMB     164      PMPG     C210     CG3RC1  -0.900000E-01   12.0110           0   0.00000     -0.301140E-02
     20324 MEMB     164      PMPG     H10R     HGA1     0.900000E-01   1.00800           0   0.00000     -0.301140E-02
     20325 MEMB     164      PMPG     C211     CTL2    -0.180000       12.0110           0   0.00000     -0.301140E-02
     20326 MEMB     164      PMPG     H11R     HAL2     0.900000E-01   1.00800           0   0.00000     -0.301140E-02
     20327 MEMB     164      PMPG     H11S     HAL2     0.900000E-01   1.00800           0   0.00000     -0.301140E-02
     20328 MEMB     164      PMPG     C212     CTL2    -0.180000       12.0110           0   0.00000     -0.301140E-02
     20329 MEMB     164      PMPG     H12R     HAL2     0.900000E-01   1.00800           0   0.00000     -0.301140E-02
     20330 MEMB     164      PMPG     H12S     HAL2     0.900000E-01   1.00800           0   0.00000     -0.301140E-02
     20331 MEMB     164      PMPG     C213     CTL2    -0.180000       12.0110           0   0.00000     -0.301140E-02
     20332 MEMB     164      PMPG     H13R     HAL2     0.900000E-01   1.00800           0   0.00000     -0.301140E-02
     20333 MEMB     164      PMPG     H13S     HAL2     0.900000E-01   1.00800           0   0.00000     -0.301140E-02
     20334 MEMB     164      PMPG     C214     CTL2    -0.180000       12.0110           0   0.00000     -0.301140E-02
     20335 MEMB     164      PMPG     H14R     HAL2     0.900000E-01   1.00800           0   0.00000     -0.301140E-02
     20336 MEMB     164      PMPG     H14S     HAL2     0.900000E-01   1.00800           0   0.00000     -0.301140E-02
     20337 MEMB     164      PMPG     C215     CTL2    -0.180000       12.0110           0   0.00000     -0.301140E-02
     20338 MEMB     164      PMPG     H15R     HAL2     0.900000E-01   1.00800           0   0.00000     -0.301140E-02
     20339 MEMB     164      PMPG     H15S     HAL2     0.900000E-01   1.00800           0   0.00000     -0.301140E-02
     20340 MEMB     164      PMPG     C216     CTL3    -0.270000       12.0110           0   0.00000     -0.301140E-02
     20341 MEMB     164      PMPG     H16R     HAL3     0.900000E-01   1.00800           0   0.00000     -0.301140E-02
     20342 MEMB     164      PMPG     H16S     HAL3     0.900000E-01   1.00800           0   0.00000     -0.301140E-02
     20343 MEMB     164      PMPG     H16T     HAL3     0.900000E-01   1.00800           0   0.00000     -0.301140E-02
     20344 MEMB     164      PMPG     C33      CTL2    -0.180000       12.0110           0   0.00000     -0.301140E-02
     20345 MEMB     164      PMPG     H3X      HAL2     0.900000E-01   1.00800           0   0.00000     -0.301140E-02
     20346 MEMB     164      PMPG     H3Y      HAL2     0.900000E-01   1.00800           0   0.00000     -0.301140E-02
     20347 MEMB     164      PMPG     C34      CTL2    -0.180000       12.0110           0   0.00000     -0.301140E-02
     20348 MEMB     164      PMPG     H4X      HAL2     0.900000E-01   1.00800           0   0.00000     -0.301140E-02
     20349 MEMB     164      PMPG     H4Y      HAL2     0.900000E-01   1.00800           0   0.00000     -0.301140E-02
     20350 MEMB     164      PMPG     C35      CTL2    -0.180000       12.0110           0   0.00000     -0.301140E-02
     20351 MEMB     164      PMPG     H5X      HAL2     0.900000E-01   1.00800           0   0.00000     -0.301140E-02
     20352 MEMB     164      PMPG     H5Y      HAL2     0.900000E-01   1.00800           0   0.00000     -0.301140E-02
     20353 MEMB     164      PMPG     C36      CTL2    -0.180000       12.0110           0   0.00000     -0.301140E-02
     20354 MEMB     164      PMPG     H6X      HAL2     0.900000E-01   1.00800           0   0.00000     -0.301140E-02
     20355 MEMB     164      PMPG     H6Y      HAL2     0.900000E-01   1.00800           0   0.00000     -0.301140E-02
     20356 MEMB     164      PMPG     C37      CTL2    -0.180000       12.0110           0   0.00000     -0.301140E-02
     20357 MEMB     164      PMPG     H7X      HAL2     0.900000E-01   1.00800           0   0.00000     -0.301140E-02
     20358 MEMB     164      PMPG     H7Y      HAL2     0.900000E-01   1.00800           0   0.00000     -0.301140E-02
     20359 MEMB     164      PMPG     C38      CTL2    -0.180000       12.0110           0   0.00000     -0.301140E-02
     20360 MEMB     164      PMPG     H8X      HAL2     0.900000E-01   1.00800           0   0.00000     -0.301140E-02
     20361 MEMB     164      PMPG     H8Y      HAL2     0.900000E-01   1.00800           0   0.00000     -0.301140E-02
     20362 MEMB     164      PMPG     C39      CTL2    -0.180000       12.0110           0   0.00000     -0.301140E-02
     20363 MEMB     164      PMPG     H9X      HAL2     0.900000E-01   1.00800           0   0.00000     -0.301140E-02
     20364 MEMB     164      PMPG     H9Y      HAL2     0.900000E-01   1.00800           0   0.00000     -0.301140E-02
     20365 MEMB     164      PMPG     C310     CTL2    -0.180000       12.0110           0   0.00000     -0.301140E-02
     20366 MEMB     164      PMPG     H10X     HAL2     0.900000E-01   1.00800           0   0.00000     -0.301140E-02
     20367 MEMB     164      PMPG     H10Y     HAL2     0.900000E-01   1.00800           0   0.00000     -0.301140E-02
     20368 MEMB     164      PMPG     C311     CTL2    -0.180000       12.0110           0   0.00000     -0.301140E-02
     20369 MEMB     164      PMPG     H11X     HAL2     0.900000E-01   1.00800           0   0.00000     -0.301140E-02
     20370 MEMB     164      PMPG     H11Y     HAL2     0.900000E-01   1.00800           0   0.00000     -0.301140E-02
     20371 MEMB     164      PMPG     C312     CTL2    -0.180000       12.0110           0   0.00000     -0.301140E-02
     20372 MEMB     164      PMPG     H12X     HAL2     0.900000E-01   1.00800           0   0.00000     -0.301140E-02
     20373 MEMB     164      PMPG     H12Y     HAL2     0.900000E-01   1.00800           0   0.00000     -0.301140E-02
     20374 MEMB     164      PMPG     C313     CTL2    -0.180000       12.0110           0   0.00000     -0.301140E-02
     20375 MEMB     164      PMPG     H13X     HAL2     0.900000E-01   1.00800           0   0.00000     -0.301140E-02
     20376 MEMB     164      PMPG     H13Y     HAL2     0.900000E-01   1.00800           0   0.00000     -0.301140E-02
     20377 MEMB     164      PMPG     C314     CTL2    -0.180000       12.0110           0   0.00000     -0.301140E-02
     20378 MEMB     164      PMPG     H14X     HAL2     0.900000E-01   1.00800           0   0.00000     -0.301140E-02
     20379 MEMB     164      PMPG     H14Y     HAL2     0.900000E-01   1.00800           0   0.00000     -0.301140E-02
     20380 MEMB     164      PMPG     C315     CTL2    -0.180000       12.0110           0   0.00000     -0.301140E-02
     20381 MEMB     164      PMPG     H15X     HAL2     0.900000E-01   1.00800           0   0.00000     -0.301140E-02
     20382 MEMB     164      PMPG     H15Y     HAL2     0.900000E-01   1.00800           0   0.00000     -0.301140E-02
     20383 MEMB     164      PMPG     C316     CTL3    -0.270000       12.0110           0   0.00000     -0.301140E-02
     20384 MEMB     164      PMPG     H16X     HAL3     0.900000E-01   1.00800           0   0.00000     -0.301140E-02
     20385 MEMB     164      PMPG     H16Y     HAL3     0.900000E-01   1.00800           0   0.00000     -0.301140E-02
     20386 MEMB     164      PMPG     H16Z     HAL3     0.900000E-01   1.00800           0   0.00000     -0.301140E-02
     20387 MEMB     165      OYPE     N        NH3L    -0.300000       14.0070           0   0.00000     -0.301140E-02
     20388 MEMB     165      OYPE     HN1      HCL      0.330000       1.00800           0   0.00000     -0.301140E-02
     20389 MEMB     165      OYPE     HN2      HCL      0.330000       1.00800           0   0.00000     -0.301140E-02
     20390 MEMB     165      OYPE     HN3      HCL      0.330000       1.00800           0   0.00000     -0.301140E-02
     20391 MEMB     165      OYPE     C12      CTL2     0.130000       12.0110           0   0.00000     -0.301140E-02
     20392 MEMB     165      OYPE     H12A     HAL2     0.900000E-01   1.00800           0   0.00000     -0.301140E-02
     20393 MEMB     165      OYPE     H12B     HAL2     0.900000E-01   1.00800           0   0.00000     -0.301140E-02
     20394 MEMB     165      OYPE     C11      CTL2    -0.800000E-01   12.0110           0   0.00000     -0.301140E-02
     20395 MEMB     165      OYPE     H11A     HAL2     0.900000E-01   1.00800           0   0.00000     -0.301140E-02
     20396 MEMB     165      OYPE     H11B     HAL2     0.900000E-01   1.00800           0   0.00000     -0.301140E-02
     20397 MEMB     165      OYPE     P        PL        1.50000       30.9740           0   0.00000     -0.301140E-02
     20398 MEMB     165      OYPE     O13      O2L     -0.780000       15.9994           0   0.00000     -0.301140E-02
     20399 MEMB     165      OYPE     O14      O2L     -0.780000       15.9994           0   0.00000     -0.301140E-02
     20400 MEMB     165      OYPE     O11      OSLP    -0.570000       15.9994           0   0.00000     -0.301140E-02
     20401 MEMB     165      OYPE     O12      OSLP    -0.570000       15.9994           0   0.00000     -0.301140E-02
     20402 MEMB     165      OYPE     C1       CTL2    -0.800000E-01   12.0110           0   0.00000     -0.301140E-02
     20403 MEMB     165      OYPE     HA       HAL2     0.900000E-01   1.00800           0   0.00000     -0.301140E-02
     20404 MEMB     165      OYPE     HB       HAL2     0.900000E-01   1.00800           0   0.00000     -0.301140E-02
     20405 MEMB     165      OYPE     C2       CTL1     0.170000       12.0110           0   0.00000     -0.301140E-02
     20406 MEMB     165      OYPE     HS       HAL1     0.900000E-01   1.00800           0   0.00000     -0.301140E-02
     20407 MEMB     165      OYPE     O21      OSL     -0.490000       15.9994           0   0.00000     -0.301140E-02
     20408 MEMB     165      OYPE     C21      CL       0.900000       12.0110           0   0.00000     -0.301140E-02
     20409 MEMB     165      OYPE     O22      OBL     -0.630000       15.9994           0   0.00000     -0.301140E-02
     20410 MEMB     165      OYPE     C22      CTL2    -0.220000       12.0110           0   0.00000     -0.301140E-02
     20411 MEMB     165      OYPE     H2R      HAL2     0.900000E-01   1.00800           0   0.00000     -0.301140E-02
     20412 MEMB     165      OYPE     H2S      HAL2     0.900000E-01   1.00800           0   0.00000     -0.301140E-02
     20413 MEMB     165      OYPE     C3       CTL2     0.800000E-01   12.0110           0   0.00000     -0.301140E-02
     20414 MEMB     165      OYPE     HX       HAL2     0.900000E-01   1.00800           0   0.00000     -0.301140E-02
     20415 MEMB     165      OYPE     HY       HAL2     0.900000E-01   1.00800           0   0.00000     -0.301140E-02
     20416 MEMB     165      OYPE     O31      OSL     -0.490000       15.9994           0   0.00000     -0.301140E-02
     20417 MEMB     165      OYPE     C31      CL       0.900000       12.0110           0   0.00000     -0.301140E-02
     20418 MEMB     165      OYPE     O32      OBL     -0.630000       15.9994           0   0.00000     -0.301140E-02
     20419 MEMB     165      OYPE     C32      CTL2    -0.220000       12.0110           0   0.00000     -0.301140E-02
     20420 MEMB     165      OYPE     H2X      HAL2     0.900000E-01   1.00800           0   0.00000     -0.301140E-02
     20421 MEMB     165      OYPE     H2Y      HAL2     0.900000E-01   1.00800           0   0.00000     -0.301140E-02
     20422 MEMB     165      OYPE     C23      CTL2    -0.180000       12.0110           0   0.00000     -0.301140E-02
     20423 MEMB     165      OYPE     H3R      HAL2     0.900000E-01   1.00800           0   0.00000     -0.301140E-02
     20424 MEMB     165      OYPE     H3S      HAL2     0.900000E-01   1.00800           0   0.00000     -0.301140E-02
     20425 MEMB     165      OYPE     C24      CTL2    -0.180000       12.0110           0   0.00000     -0.301140E-02
     20426 MEMB     165      OYPE     H4R      HAL2     0.900000E-01   1.00800           0   0.00000     -0.301140E-02
     20427 MEMB     165      OYPE     H4S      HAL2     0.900000E-01   1.00800           0   0.00000     -0.301140E-02
     20428 MEMB     165      OYPE     C25      CTL2    -0.180000       12.0110           0   0.00000     -0.301140E-02
     20429 MEMB     165      OYPE     H5R      HAL2     0.900000E-01   1.00800           0   0.00000     -0.301140E-02
     20430 MEMB     165      OYPE     H5S      HAL2     0.900000E-01   1.00800           0   0.00000     -0.301140E-02
     20431 MEMB     165      OYPE     C26      CTL2    -0.180000       12.0110           0   0.00000     -0.301140E-02
     20432 MEMB     165      OYPE     H6R      HAL2     0.900000E-01   1.00800           0   0.00000     -0.301140E-02
     20433 MEMB     165      OYPE     H6S      HAL2     0.900000E-01   1.00800           0   0.00000     -0.301140E-02
     20434 MEMB     165      OYPE     C27      CTL2    -0.180000       12.0110           0   0.00000     -0.301140E-02
     20435 MEMB     165      OYPE     H7R      HAL2     0.900000E-01   1.00800           0   0.00000     -0.301140E-02
     20436 MEMB     165      OYPE     H7S      HAL2     0.900000E-01   1.00800           0   0.00000     -0.301140E-02
     20437 MEMB     165      OYPE     C28      CTL2    -0.180000       12.0110           0   0.00000     -0.301140E-02
     20438 MEMB     165      OYPE     H8R      HAL2     0.900000E-01   1.00800           0   0.00000     -0.301140E-02
     20439 MEMB     165      OYPE     H8S      HAL2     0.900000E-01   1.00800           0   0.00000     -0.301140E-02
     20440 MEMB     165      OYPE     C29      CEL1    -0.150000       12.0110           0   0.00000     -0.301140E-02
     20441 MEMB     165      OYPE     H9R      HEL1     0.150000       1.00800           0   0.00000     -0.301140E-02
     20442 MEMB     165      OYPE     C210     CEL1    -0.150000       12.0110           0   0.00000     -0.301140E-02
     20443 MEMB     165      OYPE     H10R     HEL1     0.150000       1.00800           0   0.00000     -0.301140E-02
     20444 MEMB     165      OYPE     C211     CTL2    -0.180000       12.0110           0   0.00000     -0.301140E-02
     20445 MEMB     165      OYPE     H11R     HAL2     0.900000E-01   1.00800           0   0.00000     -0.301140E-02
     20446 MEMB     165      OYPE     H11S     HAL2     0.900000E-01   1.00800           0   0.00000     -0.301140E-02
     20447 MEMB     165      OYPE     C212     CTL2    -0.180000       12.0110           0   0.00000     -0.301140E-02
     20448 MEMB     165      OYPE     H12R     HAL2     0.900000E-01   1.00800           0   0.00000     -0.301140E-02
     20449 MEMB     165      OYPE     H12S     HAL2     0.900000E-01   1.00800           0   0.00000     -0.301140E-02
     20450 MEMB     165      OYPE     C213     CTL2    -0.180000       12.0110           0   0.00000     -0.301140E-02
     20451 MEMB     165      OYPE     H13R     HAL2     0.900000E-01   1.00800           0   0.00000     -0.301140E-02
     20452 MEMB     165      OYPE     H13S     HAL2     0.900000E-01   1.00800           0   0.00000     -0.301140E-02
     20453 MEMB     165      OYPE     C214     CTL2    -0.180000       12.0110           0   0.00000     -0.301140E-02
     20454 MEMB     165      OYPE     H14R     HAL2     0.900000E-01   1.00800           0   0.00000     -0.301140E-02
     20455 MEMB     165      OYPE     H14S     HAL2     0.900000E-01   1.00800           0   0.00000     -0.301140E-02
     20456 MEMB     165      OYPE     C215     CTL2    -0.180000       12.0110           0   0.00000     -0.301140E-02
     20457 MEMB     165      OYPE     H15R     HAL2     0.900000E-01   1.00800           0   0.00000     -0.301140E-02
     20458 MEMB     165      OYPE     H15S     HAL2     0.900000E-01   1.00800           0   0.00000     -0.301140E-02
     20459 MEMB     165      OYPE     C216     CTL3    -0.270000       12.0110           0   0.00000     -0.301140E-02
     20460 MEMB     165      OYPE     H16R     HAL3     0.900000E-01   1.00800           0   0.00000     -0.301140E-02
     20461 MEMB     165      OYPE     H16S     HAL3     0.900000E-01   1.00800           0   0.00000     -0.301140E-02
     20462 MEMB     165      OYPE     H16T     HAL3     0.900000E-01   1.00800           0   0.00000     -0.301140E-02
     20463 MEMB     165      OYPE     C33      CTL2    -0.180000       12.0110           0   0.00000     -0.301140E-02
     20464 MEMB     165      OYPE     H3X      HAL2     0.900000E-01   1.00800           0   0.00000     -0.301140E-02
     20465 MEMB     165      OYPE     H3Y      HAL2     0.900000E-01   1.00800           0   0.00000     -0.301140E-02
     20466 MEMB     165      OYPE     C34      CTL2    -0.180000       12.0110           0   0.00000     -0.301140E-02
     20467 MEMB     165      OYPE     H4X      HAL2     0.900000E-01   1.00800           0   0.00000     -0.301140E-02
     20468 MEMB     165      OYPE     H4Y      HAL2     0.900000E-01   1.00800           0   0.00000     -0.301140E-02
     20469 MEMB     165      OYPE     C35      CTL2    -0.180000       12.0110           0   0.00000     -0.301140E-02
     20470 MEMB     165      OYPE     H5X      HAL2     0.900000E-01   1.00800           0   0.00000     -0.301140E-02
     20471 MEMB     165      OYPE     H5Y      HAL2     0.900000E-01   1.00800           0   0.00000     -0.301140E-02
     20472 MEMB     165      OYPE     C36      CTL2    -0.180000       12.0110           0   0.00000     -0.301140E-02
     20473 MEMB     165      OYPE     H6X      HAL2     0.900000E-01   1.00800           0   0.00000     -0.301140E-02
     20474 MEMB     165      OYPE     H6Y      HAL2     0.900000E-01   1.00800           0   0.00000     -0.301140E-02
     20475 MEMB     165      OYPE     C37      CTL2    -0.180000       12.0110           0   0.00000     -0.301140E-02
     20476 MEMB     165      OYPE     H7X      HAL2     0.900000E-01   1.00800           0   0.00000     -0.301140E-02
     20477 MEMB     165      OYPE     H7Y      HAL2     0.900000E-01   1.00800           0   0.00000     -0.301140E-02
     20478 MEMB     165      OYPE     C38      CTL2    -0.180000       12.0110           0   0.00000     -0.301140E-02
     20479 MEMB     165      OYPE     H8X      HAL2     0.900000E-01   1.00800           0   0.00000     -0.301140E-02
     20480 MEMB     165      OYPE     H8Y      HAL2     0.900000E-01   1.00800           0   0.00000     -0.301140E-02
     20481 MEMB     165      OYPE     C39      CEL1    -0.150000       12.0110           0   0.00000     -0.301140E-02
     20482 MEMB     165      OYPE     H9X      HEL1     0.150000       1.00800           0   0.00000     -0.301140E-02
     20483 MEMB     165      OYPE     C310     CEL1    -0.150000       12.0110           0   0.00000     -0.301140E-02
     20484 MEMB     165      OYPE     H10X     HEL1     0.150000       1.00800           0   0.00000     -0.301140E-02
     20485 MEMB     165      OYPE     C311     CTL2    -0.180000       12.0110           0   0.00000     -0.301140E-02
     20486 MEMB     165      OYPE     H11X     HAL2     0.900000E-01   1.00800           0   0.00000     -0.301140E-02
     20487 MEMB     165      OYPE     H11Y     HAL2     0.900000E-01   1.00800           0   0.00000     -0.301140E-02
     20488 MEMB     165      OYPE     C312     CTL2    -0.180000       12.0110           0   0.00000     -0.301140E-02
     20489 MEMB     165      OYPE     H12X     HAL2     0.900000E-01   1.00800           0   0.00000     -0.301140E-02
     20490 MEMB     165      OYPE     H12Y     HAL2     0.900000E-01   1.00800           0   0.00000     -0.301140E-02
     20491 MEMB     165      OYPE     C313     CTL2    -0.180000       12.0110           0   0.00000     -0.301140E-02
     20492 MEMB     165      OYPE     H13X     HAL2     0.900000E-01   1.00800           0   0.00000     -0.301140E-02
     20493 MEMB     165      OYPE     H13Y     HAL2     0.900000E-01   1.00800           0   0.00000     -0.301140E-02
     20494 MEMB     165      OYPE     C314     CTL2    -0.180000       12.0110           0   0.00000     -0.301140E-02
     20495 MEMB     165      OYPE     H14X     HAL2     0.900000E-01   1.00800           0   0.00000     -0.301140E-02
     20496 MEMB     165      OYPE     H14Y     HAL2     0.900000E-01   1.00800           0   0.00000     -0.301140E-02
     20497 MEMB     165      OYPE     C315     CTL2    -0.180000       12.0110           0   0.00000     -0.301140E-02
     20498 MEMB     165      OYPE     H15X     HAL2     0.900000E-01   1.00800           0   0.00000     -0.301140E-02
     20499 MEMB     165      OYPE     H15Y     HAL2     0.900000E-01   1.00800           0   0.00000     -0.301140E-02
     20500 MEMB     165      OYPE     C316     CTL2    -0.180000       12.0110           0   0.00000     -0.301140E-02
     20501 MEMB     165      OYPE     H16X     HAL2     0.900000E-01   1.00800           0   0.00000     -0.301140E-02
     20502 MEMB     165      OYPE     H16Y     HAL2     0.900000E-01   1.00800           0   0.00000     -0.301140E-02
     20503 MEMB     165      OYPE     C317     CTL2    -0.180000       12.0110           0   0.00000     -0.301140E-02
     20504 MEMB     165      OYPE     H17X     HAL2     0.900000E-01   1.00800           0   0.00000     -0.301140E-02
     20505 MEMB     165      OYPE     H17Y     HAL2     0.900000E-01   1.00800           0   0.00000     -0.301140E-02
     20506 MEMB     165      OYPE     C318     CTL3    -0.270000       12.0110           0   0.00000     -0.301140E-02
     20507 MEMB     165      OYPE     H18X     HAL3     0.900000E-01   1.00800           0   0.00000     -0.301140E-02
     20508 MEMB     165      OYPE     H18Y     HAL3     0.900000E-01   1.00800           0   0.00000     -0.301140E-02
     20509 MEMB     165      OYPE     H18Z     HAL3     0.900000E-01   1.00800           0   0.00000     -0.301140E-02
     20510 MEMB     166      PMPE     N        NH3L    -0.300000       14.0070           0   0.00000     -0.301140E-02
     20511 MEMB     166      PMPE     HN1      HCL      0.330000       1.00800           0   0.00000     -0.301140E-02
     20512 MEMB     166      PMPE     HN2      HCL      0.330000       1.00800           0   0.00000     -0.301140E-02
     20513 MEMB     166      PMPE     HN3      HCL      0.330000       1.00800           0   0.00000     -0.301140E-02
     20514 MEMB     166      PMPE     C12      CTL2     0.130000       12.0110           0   0.00000     -0.301140E-02
     20515 MEMB     166      PMPE     H12A     HAL2     0.900000E-01   1.00800           0   0.00000     -0.301140E-02
     20516 MEMB     166      PMPE     H12B     HAL2     0.900000E-01   1.00800           0   0.00000     -0.301140E-02
     20517 MEMB     166      PMPE     C11      CTL2    -0.800000E-01   12.0110           0   0.00000     -0.301140E-02
     20518 MEMB     166      PMPE     H11A     HAL2     0.900000E-01   1.00800           0   0.00000     -0.301140E-02
     20519 MEMB     166      PMPE     H11B     HAL2     0.900000E-01   1.00800           0   0.00000     -0.301140E-02
     20520 MEMB     166      PMPE     P        PL        1.50000       30.9740           0   0.00000     -0.301140E-02
     20521 MEMB     166      PMPE     O13      O2L     -0.780000       15.9994           0   0.00000     -0.301140E-02
     20522 MEMB     166      PMPE     O14      O2L     -0.780000       15.9994           0   0.00000     -0.301140E-02
     20523 MEMB     166      PMPE     O11      OSLP    -0.570000       15.9994           0   0.00000     -0.301140E-02
     20524 MEMB     166      PMPE     O12      OSLP    -0.570000       15.9994           0   0.00000     -0.301140E-02
     20525 MEMB     166      PMPE     C1       CTL2    -0.800000E-01   12.0110           0   0.00000     -0.301140E-02
     20526 MEMB     166      PMPE     HA       HAL2     0.900000E-01   1.00800           0   0.00000     -0.301140E-02
     20527 MEMB     166      PMPE     HB       HAL2     0.900000E-01   1.00800           0   0.00000     -0.301140E-02
     20528 MEMB     166      PMPE     C2       CTL1     0.170000       12.0110           0   0.00000     -0.301140E-02
     20529 MEMB     166      PMPE     HS       HAL1     0.900000E-01   1.00800           0   0.00000     -0.301140E-02
     20530 MEMB     166      PMPE     O21      OSL     -0.490000       15.9994           0   0.00000     -0.301140E-02
     20531 MEMB     166      PMPE     C21      CL       0.900000       12.0110           0   0.00000     -0.301140E-02
     20532 MEMB     166      PMPE     O22      OBL     -0.630000       15.9994           0   0.00000     -0.301140E-02
     20533 MEMB     166      PMPE     C22      CTL2    -0.220000       12.0110           0   0.00000     -0.301140E-02
     20534 MEMB     166      PMPE     H2R      HAL2     0.900000E-01   1.00800           0   0.00000     -0.301140E-02
     20535 MEMB     166      PMPE     H2S      HAL2     0.900000E-01   1.00800           0   0.00000     -0.301140E-02
     20536 MEMB     166      PMPE     C3       CTL2     0.800000E-01   12.0110           0   0.00000     -0.301140E-02
     20537 MEMB     166      PMPE     HX       HAL2     0.900000E-01   1.00800           0   0.00000     -0.301140E-02
     20538 MEMB     166      PMPE     HY       HAL2     0.900000E-01   1.00800           0   0.00000     -0.301140E-02
     20539 MEMB     166      PMPE     O31      OSL     -0.490000       15.9994           0   0.00000     -0.301140E-02
     20540 MEMB     166      PMPE     C31      CL       0.900000       12.0110           0   0.00000     -0.301140E-02
     20541 MEMB     166      PMPE     O32      OBL     -0.630000       15.9994           0   0.00000     -0.301140E-02
     20542 MEMB     166      PMPE     C32      CTL2    -0.220000       12.0110           0   0.00000     -0.301140E-02
     20543 MEMB     166      PMPE     H2X      HAL2     0.900000E-01   1.00800           0   0.00000     -0.301140E-02
     20544 MEMB     166      PMPE     H2Y      HAL2     0.900000E-01   1.00800           0   0.00000     -0.301140E-02
     20545 MEMB     166      PMPE     C23      CTL2    -0.180000       12.0110           0   0.00000     -0.301140E-02
     20546 MEMB     166      PMPE     H3R      HAL2     0.900000E-01   1.00800           0   0.00000     -0.301140E-02
     20547 MEMB     166      PMPE     H3S      HAL2     0.900000E-01   1.00800           0   0.00000     -0.301140E-02
     20548 MEMB     166      PMPE     C24      CTL2    -0.180000       12.0110           0   0.00000     -0.301140E-02
     20549 MEMB     166      PMPE     H4R      HAL2     0.900000E-01   1.00800           0   0.00000     -0.301140E-02
     20550 MEMB     166      PMPE     H4S      HAL2     0.900000E-01   1.00800           0   0.00000     -0.301140E-02
     20551 MEMB     166      PMPE     C25      CTL2    -0.180000       12.0110           0   0.00000     -0.301140E-02
     20552 MEMB     166      PMPE     H5R      HAL2     0.900000E-01   1.00800           0   0.00000     -0.301140E-02
     20553 MEMB     166      PMPE     H5S      HAL2     0.900000E-01   1.00800           0   0.00000     -0.301140E-02
     20554 MEMB     166      PMPE     C26      CTL2    -0.180000       12.0110           0   0.00000     -0.301140E-02
     20555 MEMB     166      PMPE     H6R      HAL2     0.900000E-01   1.00800           0   0.00000     -0.301140E-02
     20556 MEMB     166      PMPE     H6S      HAL2     0.900000E-01   1.00800           0   0.00000     -0.301140E-02
     20557 MEMB     166      PMPE     C27      CTL2    -0.180000       12.0110           0   0.00000     -0.301140E-02
     20558 MEMB     166      PMPE     H7R      HAL2     0.900000E-01   1.00800           0   0.00000     -0.301140E-02
     20559 MEMB     166      PMPE     H7S      HAL2     0.900000E-01   1.00800           0   0.00000     -0.301140E-02
     20560 MEMB     166      PMPE     C28      CTL2    -0.180000       12.0110           0   0.00000     -0.301140E-02
     20561 MEMB     166      PMPE     H8R      HAL2     0.900000E-01   1.00800           0   0.00000     -0.301140E-02
     20562 MEMB     166      PMPE     H8S      HAL2     0.900000E-01   1.00800           0   0.00000     -0.301140E-02
     20563 MEMB     166      PMPE     C29      CG3RC1  -0.900000E-01   12.0110           0   0.00000     -0.301140E-02
     20564 MEMB     166      PMPE     H9R      HGA1     0.900000E-01   1.00800           0   0.00000     -0.301140E-02
     20565 MEMB     166      PMPE     C217     CG3C31  -0.180000       12.0110           0   0.00000     -0.301140E-02
     20566 MEMB     166      PMPE     H17R     HGA2     0.900000E-01   1.00800           0   0.00000     -0.301140E-02
     20567 MEMB     166      PMPE     H17S     HGA2     0.900000E-01   1.00800           0   0.00000     -0.301140E-02
     20568 MEMB     166      PMPE     C210     CG3RC1  -0.900000E-01   12.0110           0   0.00000     -0.301140E-02
     20569 MEMB     166      PMPE     H10R     HGA1     0.900000E-01   1.00800           0   0.00000     -0.301140E-02
     20570 MEMB     166      PMPE     C211     CTL2    -0.180000       12.0110           0   0.00000     -0.301140E-02
     20571 MEMB     166      PMPE     H11R     HAL2     0.900000E-01   1.00800           0   0.00000     -0.301140E-02
     20572 MEMB     166      PMPE     H11S     HAL2     0.900000E-01   1.00800           0   0.00000     -0.301140E-02
     20573 MEMB     166      PMPE     C212     CTL2    -0.180000       12.0110           0   0.00000     -0.301140E-02
     20574 MEMB     166      PMPE     H12R     HAL2     0.900000E-01   1.00800           0   0.00000     -0.301140E-02
     20575 MEMB     166      PMPE     H12S     HAL2     0.900000E-01   1.00800           0   0.00000     -0.301140E-02
     20576 MEMB     166      PMPE     C213     CTL2    -0.180000       12.0110           0   0.00000     -0.301140E-02
     20577 MEMB     166      PMPE     H13R     HAL2     0.900000E-01   1.00800           0   0.00000     -0.301140E-02
     20578 MEMB     166      PMPE     H13S     HAL2     0.900000E-01   1.00800           0   0.00000     -0.301140E-02
     20579 MEMB     166      PMPE     C214     CTL2    -0.180000       12.0110           0   0.00000     -0.301140E-02
     20580 MEMB     166      PMPE     H14R     HAL2     0.900000E-01   1.00800           0   0.00000     -0.301140E-02
     20581 MEMB     166      PMPE     H14S     HAL2     0.900000E-01   1.00800           0   0.00000     -0.301140E-02
     20582 MEMB     166      PMPE     C215     CTL2    -0.180000       12.0110           0   0.00000     -0.301140E-02
     20583 MEMB     166      PMPE     H15R     HAL2     0.900000E-01   1.00800           0   0.00000     -0.301140E-02
     20584 MEMB     166      PMPE     H15S     HAL2     0.900000E-01   1.00800           0   0.00000     -0.301140E-02
     20585 MEMB     166      PMPE     C216     CTL3    -0.270000       12.0110           0   0.00000     -0.301140E-02
     20586 MEMB     166      PMPE     H16R     HAL3     0.900000E-01   1.00800           0   0.00000     -0.301140E-02
     20587 MEMB     166      PMPE     H16S     HAL3     0.900000E-01   1.00800           0   0.00000     -0.301140E-02
     20588 MEMB     166      PMPE     H16T     HAL3     0.900000E-01   1.00800           0   0.00000     -0.301140E-02
     20589 MEMB     166      PMPE     C33      CTL2    -0.180000       12.0110           0   0.00000     -0.301140E-02
     20590 MEMB     166      PMPE     H3X      HAL2     0.900000E-01   1.00800           0   0.00000     -0.301140E-02
     20591 MEMB     166      PMPE     H3Y      HAL2     0.900000E-01   1.00800           0   0.00000     -0.301140E-02
     20592 MEMB     166      PMPE     C34      CTL2    -0.180000       12.0110           0   0.00000     -0.301140E-02
     20593 MEMB     166      PMPE     H4X      HAL2     0.900000E-01   1.00800           0   0.00000     -0.301140E-02
     20594 MEMB     166      PMPE     H4Y      HAL2     0.900000E-01   1.00800           0   0.00000     -0.301140E-02
     20595 MEMB     166      PMPE     C35      CTL2    -0.180000       12.0110           0   0.00000     -0.301140E-02
     20596 MEMB     166      PMPE     H5X      HAL2     0.900000E-01   1.00800           0   0.00000     -0.301140E-02
     20597 MEMB     166      PMPE     H5Y      HAL2     0.900000E-01   1.00800           0   0.00000     -0.301140E-02
     20598 MEMB     166      PMPE     C36      CTL2    -0.180000       12.0110           0   0.00000     -0.301140E-02
     20599 MEMB     166      PMPE     H6X      HAL2     0.900000E-01   1.00800           0   0.00000     -0.301140E-02
     20600 MEMB     166      PMPE     H6Y      HAL2     0.900000E-01   1.00800           0   0.00000     -0.301140E-02
     20601 MEMB     166      PMPE     C37      CTL2    -0.180000       12.0110           0   0.00000     -0.301140E-02
     20602 MEMB     166      PMPE     H7X      HAL2     0.900000E-01   1.00800           0   0.00000     -0.301140E-02
     20603 MEMB     166      PMPE     H7Y      HAL2     0.900000E-01   1.00800           0   0.00000     -0.301140E-02
     20604 MEMB     166      PMPE     C38      CTL2    -0.180000       12.0110           0   0.00000     -0.301140E-02
     20605 MEMB     166      PMPE     H8X      HAL2     0.900000E-01   1.00800           0   0.00000     -0.301140E-02
     20606 MEMB     166      PMPE     H8Y      HAL2     0.900000E-01   1.00800           0   0.00000     -0.301140E-02
     20607 MEMB     166      PMPE     C39      CTL2    -0.180000       12.0110           0   0.00000     -0.301140E-02
     20608 MEMB     166      PMPE     H9X      HAL2     0.900000E-01   1.00800           0   0.00000     -0.301140E-02
     20609 MEMB     166      PMPE     H9Y      HAL2     0.900000E-01   1.00800           0   0.00000     -0.301140E-02
     20610 MEMB     166      PMPE     C310     CTL2    -0.180000       12.0110           0   0.00000     -0.301140E-02
     20611 MEMB     166      PMPE     H10X     HAL2     0.900000E-01   1.00800           0   0.00000     -0.301140E-02
     20612 MEMB     166      PMPE     H10Y     HAL2     0.900000E-01   1.00800           0   0.00000     -0.301140E-02
     20613 MEMB     166      PMPE     C311     CTL2    -0.180000       12.0110           0   0.00000     -0.301140E-02
     20614 MEMB     166      PMPE     H11X     HAL2     0.900000E-01   1.00800           0   0.00000     -0.301140E-02
     20615 MEMB     166      PMPE     H11Y     HAL2     0.900000E-01   1.00800           0   0.00000     -0.301140E-02
     20616 MEMB     166      PMPE     C312     CTL2    -0.180000       12.0110           0   0.00000     -0.301140E-02
     20617 MEMB     166      PMPE     H12X     HAL2     0.900000E-01   1.00800           0   0.00000     -0.301140E-02
     20618 MEMB     166      PMPE     H12Y     HAL2     0.900000E-01   1.00800           0   0.00000     -0.301140E-02
     20619 MEMB     166      PMPE     C313     CTL2    -0.180000       12.0110           0   0.00000     -0.301140E-02
     20620 MEMB     166      PMPE     H13X     HAL2     0.900000E-01   1.00800           0   0.00000     -0.301140E-02
     20621 MEMB     166      PMPE     H13Y     HAL2     0.900000E-01   1.00800           0   0.00000     -0.301140E-02
     20622 MEMB     166      PMPE     C314     CTL2    -0.180000       12.0110           0   0.00000     -0.301140E-02
     20623 MEMB     166      PMPE     H14X     HAL2     0.900000E-01   1.00800           0   0.00000     -0.301140E-02
     20624 MEMB     166      PMPE     H14Y     HAL2     0.900000E-01   1.00800           0   0.00000     -0.301140E-02
     20625 MEMB     166      PMPE     C315     CTL2    -0.180000       12.0110           0   0.00000     -0.301140E-02
     20626 MEMB     166      PMPE     H15X     HAL2     0.900000E-01   1.00800           0   0.00000     -0.301140E-02
     20627 MEMB     166      PMPE     H15Y     HAL2     0.900000E-01   1.00800           0   0.00000     -0.301140E-02
     20628 MEMB     166      PMPE     C316     CTL3    -0.270000       12.0110           0   0.00000     -0.301140E-02
     20629 MEMB     166      PMPE     H16X     HAL3     0.900000E-01   1.00800           0   0.00000     -0.301140E-02
     20630 MEMB     166      PMPE     H16Y     HAL3     0.900000E-01   1.00800           0   0.00000     -0.301140E-02
     20631 MEMB     166      PMPE     H16Z     HAL3     0.900000E-01   1.00800           0   0.00000     -0.301140E-02
     20632 MEMB     167      PMPE     N        NH3L    -0.300000       14.0070           0   0.00000     -0.301140E-02
     20633 MEMB     167      PMPE     HN1      HCL      0.330000       1.00800           0   0.00000     -0.301140E-02
     20634 MEMB     167      PMPE     HN2      HCL      0.330000       1.00800           0   0.00000     -0.301140E-02
     20635 MEMB     167      PMPE     HN3      HCL      0.330000       1.00800           0   0.00000     -0.301140E-02
     20636 MEMB     167      PMPE     C12      CTL2     0.130000       12.0110           0   0.00000     -0.301140E-02
     20637 MEMB     167      PMPE     H12A     HAL2     0.900000E-01   1.00800           0   0.00000     -0.301140E-02
     20638 MEMB     167      PMPE     H12B     HAL2     0.900000E-01   1.00800           0   0.00000     -0.301140E-02
     20639 MEMB     167      PMPE     C11      CTL2    -0.800000E-01   12.0110           0   0.00000     -0.301140E-02
     20640 MEMB     167      PMPE     H11A     HAL2     0.900000E-01   1.00800           0   0.00000     -0.301140E-02
     20641 MEMB     167      PMPE     H11B     HAL2     0.900000E-01   1.00800           0   0.00000     -0.301140E-02
     20642 MEMB     167      PMPE     P        PL        1.50000       30.9740           0   0.00000     -0.301140E-02
     20643 MEMB     167      PMPE     O13      O2L     -0.780000       15.9994           0   0.00000     -0.301140E-02
     20644 MEMB     167      PMPE     O14      O2L     -0.780000       15.9994           0   0.00000     -0.301140E-02
     20645 MEMB     167      PMPE     O11      OSLP    -0.570000       15.9994           0   0.00000     -0.301140E-02
     20646 MEMB     167      PMPE     O12      OSLP    -0.570000       15.9994           0   0.00000     -0.301140E-02
     20647 MEMB     167      PMPE     C1       CTL2    -0.800000E-01   12.0110           0   0.00000     -0.301140E-02
     20648 MEMB     167      PMPE     HA       HAL2     0.900000E-01   1.00800           0   0.00000     -0.301140E-02
     20649 MEMB     167      PMPE     HB       HAL2     0.900000E-01   1.00800           0   0.00000     -0.301140E-02
     20650 MEMB     167      PMPE     C2       CTL1     0.170000       12.0110           0   0.00000     -0.301140E-02
     20651 MEMB     167      PMPE     HS       HAL1     0.900000E-01   1.00800           0   0.00000     -0.301140E-02
     20652 MEMB     167      PMPE     O21      OSL     -0.490000       15.9994           0   0.00000     -0.301140E-02
     20653 MEMB     167      PMPE     C21      CL       0.900000       12.0110           0   0.00000     -0.301140E-02
     20654 MEMB     167      PMPE     O22      OBL     -0.630000       15.9994           0   0.00000     -0.301140E-02
     20655 MEMB     167      PMPE     C22      CTL2    -0.220000       12.0110           0   0.00000     -0.301140E-02
     20656 MEMB     167      PMPE     H2R      HAL2     0.900000E-01   1.00800           0   0.00000     -0.301140E-02
     20657 MEMB     167      PMPE     H2S      HAL2     0.900000E-01   1.00800           0   0.00000     -0.301140E-02
     20658 MEMB     167      PMPE     C3       CTL2     0.800000E-01   12.0110           0   0.00000     -0.301140E-02
     20659 MEMB     167      PMPE     HX       HAL2     0.900000E-01   1.00800           0   0.00000     -0.301140E-02
     20660 MEMB     167      PMPE     HY       HAL2     0.900000E-01   1.00800           0   0.00000     -0.301140E-02
     20661 MEMB     167      PMPE     O31      OSL     -0.490000       15.9994           0   0.00000     -0.301140E-02
     20662 MEMB     167      PMPE     C31      CL       0.900000       12.0110           0   0.00000     -0.301140E-02
     20663 MEMB     167      PMPE     O32      OBL     -0.630000       15.9994           0   0.00000     -0.301140E-02
     20664 MEMB     167      PMPE     C32      CTL2    -0.220000       12.0110           0   0.00000     -0.301140E-02
     20665 MEMB     167      PMPE     H2X      HAL2     0.900000E-01   1.00800           0   0.00000     -0.301140E-02
     20666 MEMB     167      PMPE     H2Y      HAL2     0.900000E-01   1.00800           0   0.00000     -0.301140E-02
     20667 MEMB     167      PMPE     C23      CTL2    -0.180000       12.0110           0   0.00000     -0.301140E-02
     20668 MEMB     167      PMPE     H3R      HAL2     0.900000E-01   1.00800           0   0.00000     -0.301140E-02
     20669 MEMB     167      PMPE     H3S      HAL2     0.900000E-01   1.00800           0   0.00000     -0.301140E-02
     20670 MEMB     167      PMPE     C24      CTL2    -0.180000       12.0110           0   0.00000     -0.301140E-02
     20671 MEMB     167      PMPE     H4R      HAL2     0.900000E-01   1.00800           0   0.00000     -0.301140E-02
     20672 MEMB     167      PMPE     H4S      HAL2     0.900000E-01   1.00800           0   0.00000     -0.301140E-02
     20673 MEMB     167      PMPE     C25      CTL2    -0.180000       12.0110           0   0.00000     -0.301140E-02
     20674 MEMB     167      PMPE     H5R      HAL2     0.900000E-01   1.00800           0   0.00000     -0.301140E-02
     20675 MEMB     167      PMPE     H5S      HAL2     0.900000E-01   1.00800           0   0.00000     -0.301140E-02
     20676 MEMB     167      PMPE     C26      CTL2    -0.180000       12.0110           0   0.00000     -0.301140E-02
     20677 MEMB     167      PMPE     H6R      HAL2     0.900000E-01   1.00800           0   0.00000     -0.301140E-02
     20678 MEMB     167      PMPE     H6S      HAL2     0.900000E-01   1.00800           0   0.00000     -0.301140E-02
     20679 MEMB     167      PMPE     C27      CTL2    -0.180000       12.0110           0   0.00000     -0.301140E-02
     20680 MEMB     167      PMPE     H7R      HAL2     0.900000E-01   1.00800           0   0.00000     -0.301140E-02
     20681 MEMB     167      PMPE     H7S      HAL2     0.900000E-01   1.00800           0   0.00000     -0.301140E-02
     20682 MEMB     167      PMPE     C28      CTL2    -0.180000       12.0110           0   0.00000     -0.301140E-02
     20683 MEMB     167      PMPE     H8R      HAL2     0.900000E-01   1.00800           0   0.00000     -0.301140E-02
     20684 MEMB     167      PMPE     H8S      HAL2     0.900000E-01   1.00800           0   0.00000     -0.301140E-02
     20685 MEMB     167      PMPE     C29      CG3RC1  -0.900000E-01   12.0110           0   0.00000     -0.301140E-02
     20686 MEMB     167      PMPE     H9R      HGA1     0.900000E-01   1.00800           0   0.00000     -0.301140E-02
     20687 MEMB     167      PMPE     C217     CG3C31  -0.180000       12.0110           0   0.00000     -0.301140E-02
     20688 MEMB     167      PMPE     H17R     HGA2     0.900000E-01   1.00800           0   0.00000     -0.301140E-02
     20689 MEMB     167      PMPE     H17S     HGA2     0.900000E-01   1.00800           0   0.00000     -0.301140E-02
     20690 MEMB     167      PMPE     C210     CG3RC1  -0.900000E-01   12.0110           0   0.00000     -0.301140E-02
     20691 MEMB     167      PMPE     H10R     HGA1     0.900000E-01   1.00800           0   0.00000     -0.301140E-02
     20692 MEMB     167      PMPE     C211     CTL2    -0.180000       12.0110           0   0.00000     -0.301140E-02
     20693 MEMB     167      PMPE     H11R     HAL2     0.900000E-01   1.00800           0   0.00000     -0.301140E-02
     20694 MEMB     167      PMPE     H11S     HAL2     0.900000E-01   1.00800           0   0.00000     -0.301140E-02
     20695 MEMB     167      PMPE     C212     CTL2    -0.180000       12.0110           0   0.00000     -0.301140E-02
     20696 MEMB     167      PMPE     H12R     HAL2     0.900000E-01   1.00800           0   0.00000     -0.301140E-02
     20697 MEMB     167      PMPE     H12S     HAL2     0.900000E-01   1.00800           0   0.00000     -0.301140E-02
     20698 MEMB     167      PMPE     C213     CTL2    -0.180000       12.0110           0   0.00000     -0.301140E-02
     20699 MEMB     167      PMPE     H13R     HAL2     0.900000E-01   1.00800           0   0.00000     -0.301140E-02
     20700 MEMB     167      PMPE     H13S     HAL2     0.900000E-01   1.00800           0   0.00000     -0.301140E-02
     20701 MEMB     167      PMPE     C214     CTL2    -0.180000       12.0110           0   0.00000     -0.301140E-02
     20702 MEMB     167      PMPE     H14R     HAL2     0.900000E-01   1.00800           0   0.00000     -0.301140E-02
     20703 MEMB     167      PMPE     H14S     HAL2     0.900000E-01   1.00800           0   0.00000     -0.301140E-02
     20704 MEMB     167      PMPE     C215     CTL2    -0.180000       12.0110           0   0.00000     -0.301140E-02
     20705 MEMB     167      PMPE     H15R     HAL2     0.900000E-01   1.00800           0   0.00000     -0.301140E-02
     20706 MEMB     167      PMPE     H15S     HAL2     0.900000E-01   1.00800           0   0.00000     -0.301140E-02
     20707 MEMB     167      PMPE     C216     CTL3    -0.270000       12.0110           0   0.00000     -0.301140E-02
     20708 MEMB     167      PMPE     H16R     HAL3     0.900000E-01   1.00800           0   0.00000     -0.301140E-02
     20709 MEMB     167      PMPE     H16S     HAL3     0.900000E-01   1.00800           0   0.00000     -0.301140E-02
     20710 MEMB     167      PMPE     H16T     HAL3     0.900000E-01   1.00800           0   0.00000     -0.301140E-02
     20711 MEMB     167      PMPE     C33      CTL2    -0.180000       12.0110           0   0.00000     -0.301140E-02
     20712 MEMB     167      PMPE     H3X      HAL2     0.900000E-01   1.00800           0   0.00000     -0.301140E-02
     20713 MEMB     167      PMPE     H3Y      HAL2     0.900000E-01   1.00800           0   0.00000     -0.301140E-02
     20714 MEMB     167      PMPE     C34      CTL2    -0.180000       12.0110           0   0.00000     -0.301140E-02
     20715 MEMB     167      PMPE     H4X      HAL2     0.900000E-01   1.00800           0   0.00000     -0.301140E-02
     20716 MEMB     167      PMPE     H4Y      HAL2     0.900000E-01   1.00800           0   0.00000     -0.301140E-02
     20717 MEMB     167      PMPE     C35      CTL2    -0.180000       12.0110           0   0.00000     -0.301140E-02
     20718 MEMB     167      PMPE     H5X      HAL2     0.900000E-01   1.00800           0   0.00000     -0.301140E-02
     20719 MEMB     167      PMPE     H5Y      HAL2     0.900000E-01   1.00800           0   0.00000     -0.301140E-02
     20720 MEMB     167      PMPE     C36      CTL2    -0.180000       12.0110           0   0.00000     -0.301140E-02
     20721 MEMB     167      PMPE     H6X      HAL2     0.900000E-01   1.00800           0   0.00000     -0.301140E-02
     20722 MEMB     167      PMPE     H6Y      HAL2     0.900000E-01   1.00800           0   0.00000     -0.301140E-02
     20723 MEMB     167      PMPE     C37      CTL2    -0.180000       12.0110           0   0.00000     -0.301140E-02
     20724 MEMB     167      PMPE     H7X      HAL2     0.900000E-01   1.00800           0   0.00000     -0.301140E-02
     20725 MEMB     167      PMPE     H7Y      HAL2     0.900000E-01   1.00800           0   0.00000     -0.301140E-02
     20726 MEMB     167      PMPE     C38      CTL2    -0.180000       12.0110           0   0.00000     -0.301140E-02
     20727 MEMB     167      PMPE     H8X      HAL2     0.900000E-01   1.00800           0   0.00000     -0.301140E-02
     20728 MEMB     167      PMPE     H8Y      HAL2     0.900000E-01   1.00800           0   0.00000     -0.301140E-02
     20729 MEMB     167      PMPE     C39      CTL2    -0.180000       12.0110           0   0.00000     -0.301140E-02
     20730 MEMB     167      PMPE     H9X      HAL2     0.900000E-01   1.00800           0   0.00000     -0.301140E-02
     20731 MEMB     167      PMPE     H9Y      HAL2     0.900000E-01   1.00800           0   0.00000     -0.301140E-02
     20732 MEMB     167      PMPE     C310     CTL2    -0.180000       12.0110           0   0.00000     -0.301140E-02
     20733 MEMB     167      PMPE     H10X     HAL2     0.900000E-01   1.00800           0   0.00000     -0.301140E-02
     20734 MEMB     167      PMPE     H10Y     HAL2     0.900000E-01   1.00800           0   0.00000     -0.301140E-02
     20735 MEMB     167      PMPE     C311     CTL2    -0.180000       12.0110           0   0.00000     -0.301140E-02
     20736 MEMB     167      PMPE     H11X     HAL2     0.900000E-01   1.00800           0   0.00000     -0.301140E-02
     20737 MEMB     167      PMPE     H11Y     HAL2     0.900000E-01   1.00800           0   0.00000     -0.301140E-02
     20738 MEMB     167      PMPE     C312     CTL2    -0.180000       12.0110           0   0.00000     -0.301140E-02
     20739 MEMB     167      PMPE     H12X     HAL2     0.900000E-01   1.00800           0   0.00000     -0.301140E-02
     20740 MEMB     167      PMPE     H12Y     HAL2     0.900000E-01   1.00800           0   0.00000     -0.301140E-02
     20741 MEMB     167      PMPE     C313     CTL2    -0.180000       12.0110           0   0.00000     -0.301140E-02
     20742 MEMB     167      PMPE     H13X     HAL2     0.900000E-01   1.00800           0   0.00000     -0.301140E-02
     20743 MEMB     167      PMPE     H13Y     HAL2     0.900000E-01   1.00800           0   0.00000     -0.301140E-02
     20744 MEMB     167      PMPE     C314     CTL2    -0.180000       12.0110           0   0.00000     -0.301140E-02
     20745 MEMB     167      PMPE     H14X     HAL2     0.900000E-01   1.00800           0   0.00000     -0.301140E-02
     20746 MEMB     167      PMPE     H14Y     HAL2     0.900000E-01   1.00800           0   0.00000     -0.301140E-02
     20747 MEMB     167      PMPE     C315     CTL2    -0.180000       12.0110           0   0.00000     -0.301140E-02
     20748 MEMB     167      PMPE     H15X     HAL2     0.900000E-01   1.00800           0   0.00000     -0.301140E-02
     20749 MEMB     167      PMPE     H15Y     HAL2     0.900000E-01   1.00800           0   0.00000     -0.301140E-02
     20750 MEMB     167      PMPE     C316     CTL3    -0.270000       12.0110           0   0.00000     -0.301140E-02
     20751 MEMB     167      PMPE     H16X     HAL3     0.900000E-01   1.00800           0   0.00000     -0.301140E-02
     20752 MEMB     167      PMPE     H16Y     HAL3     0.900000E-01   1.00800           0   0.00000     -0.301140E-02
     20753 MEMB     167      PMPE     H16Z     HAL3     0.900000E-01   1.00800           0   0.00000     -0.301140E-02
     20754 MEMB     168      PMPE     N        NH3L    -0.300000       14.0070           0   0.00000     -0.301140E-02
     20755 MEMB     168      PMPE     HN1      HCL      0.330000       1.00800           0   0.00000     -0.301140E-02
     20756 MEMB     168      PMPE     HN2      HCL      0.330000       1.00800           0   0.00000     -0.301140E-02
     20757 MEMB     168      PMPE     HN3      HCL      0.330000       1.00800           0   0.00000     -0.301140E-02
     20758 MEMB     168      PMPE     C12      CTL2     0.130000       12.0110           0   0.00000     -0.301140E-02
     20759 MEMB     168      PMPE     H12A     HAL2     0.900000E-01   1.00800           0   0.00000     -0.301140E-02
     20760 MEMB     168      PMPE     H12B     HAL2     0.900000E-01   1.00800           0   0.00000     -0.301140E-02
     20761 MEMB     168      PMPE     C11      CTL2    -0.800000E-01   12.0110           0   0.00000     -0.301140E-02
     20762 MEMB     168      PMPE     H11A     HAL2     0.900000E-01   1.00800           0   0.00000     -0.301140E-02
     20763 MEMB     168      PMPE     H11B     HAL2     0.900000E-01   1.00800           0   0.00000     -0.301140E-02
     20764 MEMB     168      PMPE     P        PL        1.50000       30.9740           0   0.00000     -0.301140E-02
     20765 MEMB     168      PMPE     O13      O2L     -0.780000       15.9994           0   0.00000     -0.301140E-02
     20766 MEMB     168      PMPE     O14      O2L     -0.780000       15.9994           0   0.00000     -0.301140E-02
     20767 MEMB     168      PMPE     O11      OSLP    -0.570000       15.9994           0   0.00000     -0.301140E-02
     20768 MEMB     168      PMPE     O12      OSLP    -0.570000       15.9994           0   0.00000     -0.301140E-02
     20769 MEMB     168      PMPE     C1       CTL2    -0.800000E-01   12.0110           0   0.00000     -0.301140E-02
     20770 MEMB     168      PMPE     HA       HAL2     0.900000E-01   1.00800           0   0.00000     -0.301140E-02
     20771 MEMB     168      PMPE     HB       HAL2     0.900000E-01   1.00800           0   0.00000     -0.301140E-02
     20772 MEMB     168      PMPE     C2       CTL1     0.170000       12.0110           0   0.00000     -0.301140E-02
     20773 MEMB     168      PMPE     HS       HAL1     0.900000E-01   1.00800           0   0.00000     -0.301140E-02
     20774 MEMB     168      PMPE     O21      OSL     -0.490000       15.9994           0   0.00000     -0.301140E-02
     20775 MEMB     168      PMPE     C21      CL       0.900000       12.0110           0   0.00000     -0.301140E-02
     20776 MEMB     168      PMPE     O22      OBL     -0.630000       15.9994           0   0.00000     -0.301140E-02
     20777 MEMB     168      PMPE     C22      CTL2    -0.220000       12.0110           0   0.00000     -0.301140E-02
     20778 MEMB     168      PMPE     H2R      HAL2     0.900000E-01   1.00800           0   0.00000     -0.301140E-02
     20779 MEMB     168      PMPE     H2S      HAL2     0.900000E-01   1.00800           0   0.00000     -0.301140E-02
     20780 MEMB     168      PMPE     C3       CTL2     0.800000E-01   12.0110           0   0.00000     -0.301140E-02
     20781 MEMB     168      PMPE     HX       HAL2     0.900000E-01   1.00800           0   0.00000     -0.301140E-02
     20782 MEMB     168      PMPE     HY       HAL2     0.900000E-01   1.00800           0   0.00000     -0.301140E-02
     20783 MEMB     168      PMPE     O31      OSL     -0.490000       15.9994           0   0.00000     -0.301140E-02
     20784 MEMB     168      PMPE     C31      CL       0.900000       12.0110           0   0.00000     -0.301140E-02
     20785 MEMB     168      PMPE     O32      OBL     -0.630000       15.9994           0   0.00000     -0.301140E-02
     20786 MEMB     168      PMPE     C32      CTL2    -0.220000       12.0110           0   0.00000     -0.301140E-02
     20787 MEMB     168      PMPE     H2X      HAL2     0.900000E-01   1.00800           0   0.00000     -0.301140E-02
     20788 MEMB     168      PMPE     H2Y      HAL2     0.900000E-01   1.00800           0   0.00000     -0.301140E-02
     20789 MEMB     168      PMPE     C23      CTL2    -0.180000       12.0110           0   0.00000     -0.301140E-02
     20790 MEMB     168      PMPE     H3R      HAL2     0.900000E-01   1.00800           0   0.00000     -0.301140E-02
     20791 MEMB     168      PMPE     H3S      HAL2     0.900000E-01   1.00800           0   0.00000     -0.301140E-02
     20792 MEMB     168      PMPE     C24      CTL2    -0.180000       12.0110           0   0.00000     -0.301140E-02
     20793 MEMB     168      PMPE     H4R      HAL2     0.900000E-01   1.00800           0   0.00000     -0.301140E-02
     20794 MEMB     168      PMPE     H4S      HAL2     0.900000E-01   1.00800           0   0.00000     -0.301140E-02
     20795 MEMB     168      PMPE     C25      CTL2    -0.180000       12.0110           0   0.00000     -0.301140E-02
     20796 MEMB     168      PMPE     H5R      HAL2     0.900000E-01   1.00800           0   0.00000     -0.301140E-02
     20797 MEMB     168      PMPE     H5S      HAL2     0.900000E-01   1.00800           0   0.00000     -0.301140E-02
     20798 MEMB     168      PMPE     C26      CTL2    -0.180000       12.0110           0   0.00000     -0.301140E-02
     20799 MEMB     168      PMPE     H6R      HAL2     0.900000E-01   1.00800           0   0.00000     -0.301140E-02
     20800 MEMB     168      PMPE     H6S      HAL2     0.900000E-01   1.00800           0   0.00000     -0.301140E-02
     20801 MEMB     168      PMPE     C27      CTL2    -0.180000       12.0110           0   0.00000     -0.301140E-02
     20802 MEMB     168      PMPE     H7R      HAL2     0.900000E-01   1.00800           0   0.00000     -0.301140E-02
     20803 MEMB     168      PMPE     H7S      HAL2     0.900000E-01   1.00800           0   0.00000     -0.301140E-02
     20804 MEMB     168      PMPE     C28      CTL2    -0.180000       12.0110           0   0.00000     -0.301140E-02
     20805 MEMB     168      PMPE     H8R      HAL2     0.900000E-01   1.00800           0   0.00000     -0.301140E-02
     20806 MEMB     168      PMPE     H8S      HAL2     0.900000E-01   1.00800           0   0.00000     -0.301140E-02
     20807 MEMB     168      PMPE     C29      CG3RC1  -0.900000E-01   12.0110           0   0.00000     -0.301140E-02
     20808 MEMB     168      PMPE     H9R      HGA1     0.900000E-01   1.00800           0   0.00000     -0.301140E-02
     20809 MEMB     168      PMPE     C217     CG3C31  -0.180000       12.0110           0   0.00000     -0.301140E-02
     20810 MEMB     168      PMPE     H17R     HGA2     0.900000E-01   1.00800           0   0.00000     -0.301140E-02
     20811 MEMB     168      PMPE     H17S     HGA2     0.900000E-01   1.00800           0   0.00000     -0.301140E-02
     20812 MEMB     168      PMPE     C210     CG3RC1  -0.900000E-01   12.0110           0   0.00000     -0.301140E-02
     20813 MEMB     168      PMPE     H10R     HGA1     0.900000E-01   1.00800           0   0.00000     -0.301140E-02
     20814 MEMB     168      PMPE     C211     CTL2    -0.180000       12.0110           0   0.00000     -0.301140E-02
     20815 MEMB     168      PMPE     H11R     HAL2     0.900000E-01   1.00800           0   0.00000     -0.301140E-02
     20816 MEMB     168      PMPE     H11S     HAL2     0.900000E-01   1.00800           0   0.00000     -0.301140E-02
     20817 MEMB     168      PMPE     C212     CTL2    -0.180000       12.0110           0   0.00000     -0.301140E-02
     20818 MEMB     168      PMPE     H12R     HAL2     0.900000E-01   1.00800           0   0.00000     -0.301140E-02
     20819 MEMB     168      PMPE     H12S     HAL2     0.900000E-01   1.00800           0   0.00000     -0.301140E-02
     20820 MEMB     168      PMPE     C213     CTL2    -0.180000       12.0110           0   0.00000     -0.301140E-02
     20821 MEMB     168      PMPE     H13R     HAL2     0.900000E-01   1.00800           0   0.00000     -0.301140E-02
     20822 MEMB     168      PMPE     H13S     HAL2     0.900000E-01   1.00800           0   0.00000     -0.301140E-02
     20823 MEMB     168      PMPE     C214     CTL2    -0.180000       12.0110           0   0.00000     -0.301140E-02
     20824 MEMB     168      PMPE     H14R     HAL2     0.900000E-01   1.00800           0   0.00000     -0.301140E-02
     20825 MEMB     168      PMPE     H14S     HAL2     0.900000E-01   1.00800           0   0.00000     -0.301140E-02
     20826 MEMB     168      PMPE     C215     CTL2    -0.180000       12.0110           0   0.00000     -0.301140E-02
     20827 MEMB     168      PMPE     H15R     HAL2     0.900000E-01   1.00800           0   0.00000     -0.301140E-02
     20828 MEMB     168      PMPE     H15S     HAL2     0.900000E-01   1.00800           0   0.00000     -0.301140E-02
     20829 MEMB     168      PMPE     C216     CTL3    -0.270000       12.0110           0   0.00000     -0.301140E-02
     20830 MEMB     168      PMPE     H16R     HAL3     0.900000E-01   1.00800           0   0.00000     -0.301140E-02
     20831 MEMB     168      PMPE     H16S     HAL3     0.900000E-01   1.00800           0   0.00000     -0.301140E-02
     20832 MEMB     168      PMPE     H16T     HAL3     0.900000E-01   1.00800           0   0.00000     -0.301140E-02
     20833 MEMB     168      PMPE     C33      CTL2    -0.180000       12.0110           0   0.00000     -0.301140E-02
     20834 MEMB     168      PMPE     H3X      HAL2     0.900000E-01   1.00800           0   0.00000     -0.301140E-02
     20835 MEMB     168      PMPE     H3Y      HAL2     0.900000E-01   1.00800           0   0.00000     -0.301140E-02
     20836 MEMB     168      PMPE     C34      CTL2    -0.180000       12.0110           0   0.00000     -0.301140E-02
     20837 MEMB     168      PMPE     H4X      HAL2     0.900000E-01   1.00800           0   0.00000     -0.301140E-02
     20838 MEMB     168      PMPE     H4Y      HAL2     0.900000E-01   1.00800           0   0.00000     -0.301140E-02
     20839 MEMB     168      PMPE     C35      CTL2    -0.180000       12.0110           0   0.00000     -0.301140E-02
     20840 MEMB     168      PMPE     H5X      HAL2     0.900000E-01   1.00800           0   0.00000     -0.301140E-02
     20841 MEMB     168      PMPE     H5Y      HAL2     0.900000E-01   1.00800           0   0.00000     -0.301140E-02
     20842 MEMB     168      PMPE     C36      CTL2    -0.180000       12.0110           0   0.00000     -0.301140E-02
     20843 MEMB     168      PMPE     H6X      HAL2     0.900000E-01   1.00800           0   0.00000     -0.301140E-02
     20844 MEMB     168      PMPE     H6Y      HAL2     0.900000E-01   1.00800           0   0.00000     -0.301140E-02
     20845 MEMB     168      PMPE     C37      CTL2    -0.180000       12.0110           0   0.00000     -0.301140E-02
     20846 MEMB     168      PMPE     H7X      HAL2     0.900000E-01   1.00800           0   0.00000     -0.301140E-02
     20847 MEMB     168      PMPE     H7Y      HAL2     0.900000E-01   1.00800           0   0.00000     -0.301140E-02
     20848 MEMB     168      PMPE     C38      CTL2    -0.180000       12.0110           0   0.00000     -0.301140E-02
     20849 MEMB     168      PMPE     H8X      HAL2     0.900000E-01   1.00800           0   0.00000     -0.301140E-02
     20850 MEMB     168      PMPE     H8Y      HAL2     0.900000E-01   1.00800           0   0.00000     -0.301140E-02
     20851 MEMB     168      PMPE     C39      CTL2    -0.180000       12.0110           0   0.00000     -0.301140E-02
     20852 MEMB     168      PMPE     H9X      HAL2     0.900000E-01   1.00800           0   0.00000     -0.301140E-02
     20853 MEMB     168      PMPE     H9Y      HAL2     0.900000E-01   1.00800           0   0.00000     -0.301140E-02
     20854 MEMB     168      PMPE     C310     CTL2    -0.180000       12.0110           0   0.00000     -0.301140E-02
     20855 MEMB     168      PMPE     H10X     HAL2     0.900000E-01   1.00800           0   0.00000     -0.301140E-02
     20856 MEMB     168      PMPE     H10Y     HAL2     0.900000E-01   1.00800           0   0.00000     -0.301140E-02
     20857 MEMB     168      PMPE     C311     CTL2    -0.180000       12.0110           0   0.00000     -0.301140E-02
     20858 MEMB     168      PMPE     H11X     HAL2     0.900000E-01   1.00800           0   0.00000     -0.301140E-02
     20859 MEMB     168      PMPE     H11Y     HAL2     0.900000E-01   1.00800           0   0.00000     -0.301140E-02
     20860 MEMB     168      PMPE     C312     CTL2    -0.180000       12.0110           0   0.00000     -0.301140E-02
     20861 MEMB     168      PMPE     H12X     HAL2     0.900000E-01   1.00800           0   0.00000     -0.301140E-02
     20862 MEMB     168      PMPE     H12Y     HAL2     0.900000E-01   1.00800           0   0.00000     -0.301140E-02
     20863 MEMB     168      PMPE     C313     CTL2    -0.180000       12.0110           0   0.00000     -0.301140E-02
     20864 MEMB     168      PMPE     H13X     HAL2     0.900000E-01   1.00800           0   0.00000     -0.301140E-02
     20865 MEMB     168      PMPE     H13Y     HAL2     0.900000E-01   1.00800           0   0.00000     -0.301140E-02
     20866 MEMB     168      PMPE     C314     CTL2    -0.180000       12.0110           0   0.00000     -0.301140E-02
     20867 MEMB     168      PMPE     H14X     HAL2     0.900000E-01   1.00800           0   0.00000     -0.301140E-02
     20868 MEMB     168      PMPE     H14Y     HAL2     0.900000E-01   1.00800           0   0.00000     -0.301140E-02
     20869 MEMB     168      PMPE     C315     CTL2    -0.180000       12.0110           0   0.00000     -0.301140E-02
     20870 MEMB     168      PMPE     H15X     HAL2     0.900000E-01   1.00800           0   0.00000     -0.301140E-02
     20871 MEMB     168      PMPE     H15Y     HAL2     0.900000E-01   1.00800           0   0.00000     -0.301140E-02
     20872 MEMB     168      PMPE     C316     CTL3    -0.270000       12.0110           0   0.00000     -0.301140E-02
     20873 MEMB     168      PMPE     H16X     HAL3     0.900000E-01   1.00800           0   0.00000     -0.301140E-02
     20874 MEMB     168      PMPE     H16Y     HAL3     0.900000E-01   1.00800           0   0.00000     -0.301140E-02
     20875 MEMB     168      PMPE     H16Z     HAL3     0.900000E-01   1.00800           0   0.00000     -0.301140E-02
     20876 MEMB     169      POPE     N        NH3L    -0.300000       14.0070           0   0.00000     -0.301140E-02
     20877 MEMB     169      POPE     HN1      HCL      0.330000       1.00800           0   0.00000     -0.301140E-02
     20878 MEMB     169      POPE     HN2      HCL      0.330000       1.00800           0   0.00000     -0.301140E-02
     20879 MEMB     169      POPE     HN3      HCL      0.330000       1.00800           0   0.00000     -0.301140E-02
     20880 MEMB     169      POPE     C12      CTL2     0.130000       12.0110           0   0.00000     -0.301140E-02
     20881 MEMB     169      POPE     H12A     HAL2     0.900000E-01   1.00800           0   0.00000     -0.301140E-02
     20882 MEMB     169      POPE     H12B     HAL2     0.900000E-01   1.00800           0   0.00000     -0.301140E-02
     20883 MEMB     169      POPE     C11      CTL2    -0.800000E-01   12.0110           0   0.00000     -0.301140E-02
     20884 MEMB     169      POPE     H11A     HAL2     0.900000E-01   1.00800           0   0.00000     -0.301140E-02
     20885 MEMB     169      POPE     H11B     HAL2     0.900000E-01   1.00800           0   0.00000     -0.301140E-02
     20886 MEMB     169      POPE     P        PL        1.50000       30.9740           0   0.00000     -0.301140E-02
     20887 MEMB     169      POPE     O13      O2L     -0.780000       15.9994           0   0.00000     -0.301140E-02
     20888 MEMB     169      POPE     O14      O2L     -0.780000       15.9994           0   0.00000     -0.301140E-02
     20889 MEMB     169      POPE     O11      OSLP    -0.570000       15.9994           0   0.00000     -0.301140E-02
     20890 MEMB     169      POPE     O12      OSLP    -0.570000       15.9994           0   0.00000     -0.301140E-02
     20891 MEMB     169      POPE     C1       CTL2    -0.800000E-01   12.0110           0   0.00000     -0.301140E-02
     20892 MEMB     169      POPE     HA       HAL2     0.900000E-01   1.00800           0   0.00000     -0.301140E-02
     20893 MEMB     169      POPE     HB       HAL2     0.900000E-01   1.00800           0   0.00000     -0.301140E-02
     20894 MEMB     169      POPE     C2       CTL1     0.170000       12.0110           0   0.00000     -0.301140E-02
     20895 MEMB     169      POPE     HS       HAL1     0.900000E-01   1.00800           0   0.00000     -0.301140E-02
     20896 MEMB     169      POPE     O21      OSL     -0.490000       15.9994           0   0.00000     -0.301140E-02
     20897 MEMB     169      POPE     C21      CL       0.900000       12.0110           0   0.00000     -0.301140E-02
     20898 MEMB     169      POPE     O22      OBL     -0.630000       15.9994           0   0.00000     -0.301140E-02
     20899 MEMB     169      POPE     C22      CTL2    -0.220000       12.0110           0   0.00000     -0.301140E-02
     20900 MEMB     169      POPE     H2R      HAL2     0.900000E-01   1.00800           0   0.00000     -0.301140E-02
     20901 MEMB     169      POPE     H2S      HAL2     0.900000E-01   1.00800           0   0.00000     -0.301140E-02
     20902 MEMB     169      POPE     C3       CTL2     0.800000E-01   12.0110           0   0.00000     -0.301140E-02
     20903 MEMB     169      POPE     HX       HAL2     0.900000E-01   1.00800           0   0.00000     -0.301140E-02
     20904 MEMB     169      POPE     HY       HAL2     0.900000E-01   1.00800           0   0.00000     -0.301140E-02
     20905 MEMB     169      POPE     O31      OSL     -0.490000       15.9994           0   0.00000     -0.301140E-02
     20906 MEMB     169      POPE     C31      CL       0.900000       12.0110           0   0.00000     -0.301140E-02
     20907 MEMB     169      POPE     O32      OBL     -0.630000       15.9994           0   0.00000     -0.301140E-02
     20908 MEMB     169      POPE     C32      CTL2    -0.220000       12.0110           0   0.00000     -0.301140E-02
     20909 MEMB     169      POPE     H2X      HAL2     0.900000E-01   1.00800           0   0.00000     -0.301140E-02
     20910 MEMB     169      POPE     H2Y      HAL2     0.900000E-01   1.00800           0   0.00000     -0.301140E-02
     20911 MEMB     169      POPE     C23      CTL2    -0.180000       12.0110           0   0.00000     -0.301140E-02
     20912 MEMB     169      POPE     H3R      HAL2     0.900000E-01   1.00800           0   0.00000     -0.301140E-02
     20913 MEMB     169      POPE     H3S      HAL2     0.900000E-01   1.00800           0   0.00000     -0.301140E-02
     20914 MEMB     169      POPE     C24      CTL2    -0.180000       12.0110           0   0.00000     -0.301140E-02
     20915 MEMB     169      POPE     H4R      HAL2     0.900000E-01   1.00800           0   0.00000     -0.301140E-02
     20916 MEMB     169      POPE     H4S      HAL2     0.900000E-01   1.00800           0   0.00000     -0.301140E-02
     20917 MEMB     169      POPE     C25      CTL2    -0.180000       12.0110           0   0.00000     -0.301140E-02
     20918 MEMB     169      POPE     H5R      HAL2     0.900000E-01   1.00800           0   0.00000     -0.301140E-02
     20919 MEMB     169      POPE     H5S      HAL2     0.900000E-01   1.00800           0   0.00000     -0.301140E-02
     20920 MEMB     169      POPE     C26      CTL2    -0.180000       12.0110           0   0.00000     -0.301140E-02
     20921 MEMB     169      POPE     H6R      HAL2     0.900000E-01   1.00800           0   0.00000     -0.301140E-02
     20922 MEMB     169      POPE     H6S      HAL2     0.900000E-01   1.00800           0   0.00000     -0.301140E-02
     20923 MEMB     169      POPE     C27      CTL2    -0.180000       12.0110           0   0.00000     -0.301140E-02
     20924 MEMB     169      POPE     H7R      HAL2     0.900000E-01   1.00800           0   0.00000     -0.301140E-02
     20925 MEMB     169      POPE     H7S      HAL2     0.900000E-01   1.00800           0   0.00000     -0.301140E-02
     20926 MEMB     169      POPE     C28      CTL2    -0.180000       12.0110           0   0.00000     -0.301140E-02
     20927 MEMB     169      POPE     H8R      HAL2     0.900000E-01   1.00800           0   0.00000     -0.301140E-02
     20928 MEMB     169      POPE     H8S      HAL2     0.900000E-01   1.00800           0   0.00000     -0.301140E-02
     20929 MEMB     169      POPE     C29      CEL1    -0.150000       12.0110           0   0.00000     -0.301140E-02
     20930 MEMB     169      POPE     H91      HEL1     0.150000       1.00800           0   0.00000     -0.301140E-02
     20931 MEMB     169      POPE     C210     CEL1    -0.150000       12.0110           0   0.00000     -0.301140E-02
     20932 MEMB     169      POPE     H101     HEL1     0.150000       1.00800           0   0.00000     -0.301140E-02
     20933 MEMB     169      POPE     C211     CTL2    -0.180000       12.0110           0   0.00000     -0.301140E-02
     20934 MEMB     169      POPE     H11R     HAL2     0.900000E-01   1.00800           0   0.00000     -0.301140E-02
     20935 MEMB     169      POPE     H11S     HAL2     0.900000E-01   1.00800           0   0.00000     -0.301140E-02
     20936 MEMB     169      POPE     C212     CTL2    -0.180000       12.0110           0   0.00000     -0.301140E-02
     20937 MEMB     169      POPE     H12R     HAL2     0.900000E-01   1.00800           0   0.00000     -0.301140E-02
     20938 MEMB     169      POPE     H12S     HAL2     0.900000E-01   1.00800           0   0.00000     -0.301140E-02
     20939 MEMB     169      POPE     C213     CTL2    -0.180000       12.0110           0   0.00000     -0.301140E-02
     20940 MEMB     169      POPE     H13R     HAL2     0.900000E-01   1.00800           0   0.00000     -0.301140E-02
     20941 MEMB     169      POPE     H13S     HAL2     0.900000E-01   1.00800           0   0.00000     -0.301140E-02
     20942 MEMB     169      POPE     C214     CTL2    -0.180000       12.0110           0   0.00000     -0.301140E-02
     20943 MEMB     169      POPE     H14R     HAL2     0.900000E-01   1.00800           0   0.00000     -0.301140E-02
     20944 MEMB     169      POPE     H14S     HAL2     0.900000E-01   1.00800           0   0.00000     -0.301140E-02
     20945 MEMB     169      POPE     C215     CTL2    -0.180000       12.0110           0   0.00000     -0.301140E-02
     20946 MEMB     169      POPE     H15R     HAL2     0.900000E-01   1.00800           0   0.00000     -0.301140E-02
     20947 MEMB     169      POPE     H15S     HAL2     0.900000E-01   1.00800           0   0.00000     -0.301140E-02
     20948 MEMB     169      POPE     C216     CTL2    -0.180000       12.0110           0   0.00000     -0.301140E-02
     20949 MEMB     169      POPE     H16R     HAL2     0.900000E-01   1.00800           0   0.00000     -0.301140E-02
     20950 MEMB     169      POPE     H16S     HAL2     0.900000E-01   1.00800           0   0.00000     -0.301140E-02
     20951 MEMB     169      POPE     C217     CTL2    -0.180000       12.0110           0   0.00000     -0.301140E-02
     20952 MEMB     169      POPE     H17R     HAL2     0.900000E-01   1.00800           0   0.00000     -0.301140E-02
     20953 MEMB     169      POPE     H17S     HAL2     0.900000E-01   1.00800           0   0.00000     -0.301140E-02
     20954 MEMB     169      POPE     C218     CTL3    -0.270000       12.0110           0   0.00000     -0.301140E-02
     20955 MEMB     169      POPE     H18R     HAL3     0.900000E-01   1.00800           0   0.00000     -0.301140E-02
     20956 MEMB     169      POPE     H18S     HAL3     0.900000E-01   1.00800           0   0.00000     -0.301140E-02
     20957 MEMB     169      POPE     H18T     HAL3     0.900000E-01   1.00800           0   0.00000     -0.301140E-02
     20958 MEMB     169      POPE     C33      CTL2    -0.180000       12.0110           0   0.00000     -0.301140E-02
     20959 MEMB     169      POPE     H3X      HAL2     0.900000E-01   1.00800           0   0.00000     -0.301140E-02
     20960 MEMB     169      POPE     H3Y      HAL2     0.900000E-01   1.00800           0   0.00000     -0.301140E-02
     20961 MEMB     169      POPE     C34      CTL2    -0.180000       12.0110           0   0.00000     -0.301140E-02
     20962 MEMB     169      POPE     H4X      HAL2     0.900000E-01   1.00800           0   0.00000     -0.301140E-02
     20963 MEMB     169      POPE     H4Y      HAL2     0.900000E-01   1.00800           0   0.00000     -0.301140E-02
     20964 MEMB     169      POPE     C35      CTL2    -0.180000       12.0110           0   0.00000     -0.301140E-02
     20965 MEMB     169      POPE     H5X      HAL2     0.900000E-01   1.00800           0   0.00000     -0.301140E-02
     20966 MEMB     169      POPE     H5Y      HAL2     0.900000E-01   1.00800           0   0.00000     -0.301140E-02
     20967 MEMB     169      POPE     C36      CTL2    -0.180000       12.0110           0   0.00000     -0.301140E-02
     20968 MEMB     169      POPE     H6X      HAL2     0.900000E-01   1.00800           0   0.00000     -0.301140E-02
     20969 MEMB     169      POPE     H6Y      HAL2     0.900000E-01   1.00800           0   0.00000     -0.301140E-02
     20970 MEMB     169      POPE     C37      CTL2    -0.180000       12.0110           0   0.00000     -0.301140E-02
     20971 MEMB     169      POPE     H7X      HAL2     0.900000E-01   1.00800           0   0.00000     -0.301140E-02
     20972 MEMB     169      POPE     H7Y      HAL2     0.900000E-01   1.00800           0   0.00000     -0.301140E-02
     20973 MEMB     169      POPE     C38      CTL2    -0.180000       12.0110           0   0.00000     -0.301140E-02
     20974 MEMB     169      POPE     H8X      HAL2     0.900000E-01   1.00800           0   0.00000     -0.301140E-02
     20975 MEMB     169      POPE     H8Y      HAL2     0.900000E-01   1.00800           0   0.00000     -0.301140E-02
     20976 MEMB     169      POPE     C39      CTL2    -0.180000       12.0110           0   0.00000     -0.301140E-02
     20977 MEMB     169      POPE     H9X      HAL2     0.900000E-01   1.00800           0   0.00000     -0.301140E-02
     20978 MEMB     169      POPE     H9Y      HAL2     0.900000E-01   1.00800           0   0.00000     -0.301140E-02
     20979 MEMB     169      POPE     C310     CTL2    -0.180000       12.0110           0   0.00000     -0.301140E-02
     20980 MEMB     169      POPE     H10X     HAL2     0.900000E-01   1.00800           0   0.00000     -0.301140E-02
     20981 MEMB     169      POPE     H10Y     HAL2     0.900000E-01   1.00800           0   0.00000     -0.301140E-02
     20982 MEMB     169      POPE     C311     CTL2    -0.180000       12.0110           0   0.00000     -0.301140E-02
     20983 MEMB     169      POPE     H11X     HAL2     0.900000E-01   1.00800           0   0.00000     -0.301140E-02
     20984 MEMB     169      POPE     H11Y     HAL2     0.900000E-01   1.00800           0   0.00000     -0.301140E-02
     20985 MEMB     169      POPE     C312     CTL2    -0.180000       12.0110           0   0.00000     -0.301140E-02
     20986 MEMB     169      POPE     H12X     HAL2     0.900000E-01   1.00800           0   0.00000     -0.301140E-02
     20987 MEMB     169      POPE     H12Y     HAL2     0.900000E-01   1.00800           0   0.00000     -0.301140E-02
     20988 MEMB     169      POPE     C313     CTL2    -0.180000       12.0110           0   0.00000     -0.301140E-02
     20989 MEMB     169      POPE     H13X     HAL2     0.900000E-01   1.00800           0   0.00000     -0.301140E-02
     20990 MEMB     169      POPE     H13Y     HAL2     0.900000E-01   1.00800           0   0.00000     -0.301140E-02
     20991 MEMB     169      POPE     C314     CTL2    -0.180000       12.0110           0   0.00000     -0.301140E-02
     20992 MEMB     169      POPE     H14X     HAL2     0.900000E-01   1.00800           0   0.00000     -0.301140E-02
     20993 MEMB     169      POPE     H14Y     HAL2     0.900000E-01   1.00800           0   0.00000     -0.301140E-02
     20994 MEMB     169      POPE     C315     CTL2    -0.180000       12.0110           0   0.00000     -0.301140E-02
     20995 MEMB     169      POPE     H15X     HAL2     0.900000E-01   1.00800           0   0.00000     -0.301140E-02
     20996 MEMB     169      POPE     H15Y     HAL2     0.900000E-01   1.00800           0   0.00000     -0.301140E-02
     20997 MEMB     169      POPE     C316     CTL3    -0.270000       12.0110           0   0.00000     -0.301140E-02
     20998 MEMB     169      POPE     H16X     HAL3     0.900000E-01   1.00800           0   0.00000     -0.301140E-02
     20999 MEMB     169      POPE     H16Y     HAL3     0.900000E-01   1.00800           0   0.00000     -0.301140E-02
     21000 MEMB     169      POPE     H16Z     HAL3     0.900000E-01   1.00800           0   0.00000     -0.301140E-02
     21001 MEMB     170      POPE     N        NH3L    -0.300000       14.0070           0   0.00000     -0.301140E-02
     21002 MEMB     170      POPE     HN1      HCL      0.330000       1.00800           0   0.00000     -0.301140E-02
     21003 MEMB     170      POPE     HN2      HCL      0.330000       1.00800           0   0.00000     -0.301140E-02
     21004 MEMB     170      POPE     HN3      HCL      0.330000       1.00800           0   0.00000     -0.301140E-02
     21005 MEMB     170      POPE     C12      CTL2     0.130000       12.0110           0   0.00000     -0.301140E-02
     21006 MEMB     170      POPE     H12A     HAL2     0.900000E-01   1.00800           0   0.00000     -0.301140E-02
     21007 MEMB     170      POPE     H12B     HAL2     0.900000E-01   1.00800           0   0.00000     -0.301140E-02
     21008 MEMB     170      POPE     C11      CTL2    -0.800000E-01   12.0110           0   0.00000     -0.301140E-02
     21009 MEMB     170      POPE     H11A     HAL2     0.900000E-01   1.00800           0   0.00000     -0.301140E-02
     21010 MEMB     170      POPE     H11B     HAL2     0.900000E-01   1.00800           0   0.00000     -0.301140E-02
     21011 MEMB     170      POPE     P        PL        1.50000       30.9740           0   0.00000     -0.301140E-02
     21012 MEMB     170      POPE     O13      O2L     -0.780000       15.9994           0   0.00000     -0.301140E-02
     21013 MEMB     170      POPE     O14      O2L     -0.780000       15.9994           0   0.00000     -0.301140E-02
     21014 MEMB     170      POPE     O11      OSLP    -0.570000       15.9994           0   0.00000     -0.301140E-02
     21015 MEMB     170      POPE     O12      OSLP    -0.570000       15.9994           0   0.00000     -0.301140E-02
     21016 MEMB     170      POPE     C1       CTL2    -0.800000E-01   12.0110           0   0.00000     -0.301140E-02
     21017 MEMB     170      POPE     HA       HAL2     0.900000E-01   1.00800           0   0.00000     -0.301140E-02
     21018 MEMB     170      POPE     HB       HAL2     0.900000E-01   1.00800           0   0.00000     -0.301140E-02
     21019 MEMB     170      POPE     C2       CTL1     0.170000       12.0110           0   0.00000     -0.301140E-02
     21020 MEMB     170      POPE     HS       HAL1     0.900000E-01   1.00800           0   0.00000     -0.301140E-02
     21021 MEMB     170      POPE     O21      OSL     -0.490000       15.9994           0   0.00000     -0.301140E-02
     21022 MEMB     170      POPE     C21      CL       0.900000       12.0110           0   0.00000     -0.301140E-02
     21023 MEMB     170      POPE     O22      OBL     -0.630000       15.9994           0   0.00000     -0.301140E-02
     21024 MEMB     170      POPE     C22      CTL2    -0.220000       12.0110           0   0.00000     -0.301140E-02
     21025 MEMB     170      POPE     H2R      HAL2     0.900000E-01   1.00800           0   0.00000     -0.301140E-02
     21026 MEMB     170      POPE     H2S      HAL2     0.900000E-01   1.00800           0   0.00000     -0.301140E-02
     21027 MEMB     170      POPE     C3       CTL2     0.800000E-01   12.0110           0   0.00000     -0.301140E-02
     21028 MEMB     170      POPE     HX       HAL2     0.900000E-01   1.00800           0   0.00000     -0.301140E-02
     21029 MEMB     170      POPE     HY       HAL2     0.900000E-01   1.00800           0   0.00000     -0.301140E-02
     21030 MEMB     170      POPE     O31      OSL     -0.490000       15.9994           0   0.00000     -0.301140E-02
     21031 MEMB     170      POPE     C31      CL       0.900000       12.0110           0   0.00000     -0.301140E-02
     21032 MEMB     170      POPE     O32      OBL     -0.630000       15.9994           0   0.00000     -0.301140E-02
     21033 MEMB     170      POPE     C32      CTL2    -0.220000       12.0110           0   0.00000     -0.301140E-02
     21034 MEMB     170      POPE     H2X      HAL2     0.900000E-01   1.00800           0   0.00000     -0.301140E-02
     21035 MEMB     170      POPE     H2Y      HAL2     0.900000E-01   1.00800           0   0.00000     -0.301140E-02
     21036 MEMB     170      POPE     C23      CTL2    -0.180000       12.0110           0   0.00000     -0.301140E-02
     21037 MEMB     170      POPE     H3R      HAL2     0.900000E-01   1.00800           0   0.00000     -0.301140E-02
     21038 MEMB     170      POPE     H3S      HAL2     0.900000E-01   1.00800           0   0.00000     -0.301140E-02
     21039 MEMB     170      POPE     C24      CTL2    -0.180000       12.0110           0   0.00000     -0.301140E-02
     21040 MEMB     170      POPE     H4R      HAL2     0.900000E-01   1.00800           0   0.00000     -0.301140E-02
     21041 MEMB     170      POPE     H4S      HAL2     0.900000E-01   1.00800           0   0.00000     -0.301140E-02
     21042 MEMB     170      POPE     C25      CTL2    -0.180000       12.0110           0   0.00000     -0.301140E-02
     21043 MEMB     170      POPE     H5R      HAL2     0.900000E-01   1.00800           0   0.00000     -0.301140E-02
     21044 MEMB     170      POPE     H5S      HAL2     0.900000E-01   1.00800           0   0.00000     -0.301140E-02
     21045 MEMB     170      POPE     C26      CTL2    -0.180000       12.0110           0   0.00000     -0.301140E-02
     21046 MEMB     170      POPE     H6R      HAL2     0.900000E-01   1.00800           0   0.00000     -0.301140E-02
     21047 MEMB     170      POPE     H6S      HAL2     0.900000E-01   1.00800           0   0.00000     -0.301140E-02
     21048 MEMB     170      POPE     C27      CTL2    -0.180000       12.0110           0   0.00000     -0.301140E-02
     21049 MEMB     170      POPE     H7R      HAL2     0.900000E-01   1.00800           0   0.00000     -0.301140E-02
     21050 MEMB     170      POPE     H7S      HAL2     0.900000E-01   1.00800           0   0.00000     -0.301140E-02
     21051 MEMB     170      POPE     C28      CTL2    -0.180000       12.0110           0   0.00000     -0.301140E-02
     21052 MEMB     170      POPE     H8R      HAL2     0.900000E-01   1.00800           0   0.00000     -0.301140E-02
     21053 MEMB     170      POPE     H8S      HAL2     0.900000E-01   1.00800           0   0.00000     -0.301140E-02
     21054 MEMB     170      POPE     C29      CEL1    -0.150000       12.0110           0   0.00000     -0.301140E-02
     21055 MEMB     170      POPE     H91      HEL1     0.150000       1.00800           0   0.00000     -0.301140E-02
     21056 MEMB     170      POPE     C210     CEL1    -0.150000       12.0110           0   0.00000     -0.301140E-02
     21057 MEMB     170      POPE     H101     HEL1     0.150000       1.00800           0   0.00000     -0.301140E-02
     21058 MEMB     170      POPE     C211     CTL2    -0.180000       12.0110           0   0.00000     -0.301140E-02
     21059 MEMB     170      POPE     H11R     HAL2     0.900000E-01   1.00800           0   0.00000     -0.301140E-02
     21060 MEMB     170      POPE     H11S     HAL2     0.900000E-01   1.00800           0   0.00000     -0.301140E-02
     21061 MEMB     170      POPE     C212     CTL2    -0.180000       12.0110           0   0.00000     -0.301140E-02
     21062 MEMB     170      POPE     H12R     HAL2     0.900000E-01   1.00800           0   0.00000     -0.301140E-02
     21063 MEMB     170      POPE     H12S     HAL2     0.900000E-01   1.00800           0   0.00000     -0.301140E-02
     21064 MEMB     170      POPE     C213     CTL2    -0.180000       12.0110           0   0.00000     -0.301140E-02
     21065 MEMB     170      POPE     H13R     HAL2     0.900000E-01   1.00800           0   0.00000     -0.301140E-02
     21066 MEMB     170      POPE     H13S     HAL2     0.900000E-01   1.00800           0   0.00000     -0.301140E-02
     21067 MEMB     170      POPE     C214     CTL2    -0.180000       12.0110           0   0.00000     -0.301140E-02
     21068 MEMB     170      POPE     H14R     HAL2     0.900000E-01   1.00800           0   0.00000     -0.301140E-02
     21069 MEMB     170      POPE     H14S     HAL2     0.900000E-01   1.00800           0   0.00000     -0.301140E-02
     21070 MEMB     170      POPE     C215     CTL2    -0.180000       12.0110           0   0.00000     -0.301140E-02
     21071 MEMB     170      POPE     H15R     HAL2     0.900000E-01   1.00800           0   0.00000     -0.301140E-02
     21072 MEMB     170      POPE     H15S     HAL2     0.900000E-01   1.00800           0   0.00000     -0.301140E-02
     21073 MEMB     170      POPE     C216     CTL2    -0.180000       12.0110           0   0.00000     -0.301140E-02
     21074 MEMB     170      POPE     H16R     HAL2     0.900000E-01   1.00800           0   0.00000     -0.301140E-02
     21075 MEMB     170      POPE     H16S     HAL2     0.900000E-01   1.00800           0   0.00000     -0.301140E-02
     21076 MEMB     170      POPE     C217     CTL2    -0.180000       12.0110           0   0.00000     -0.301140E-02
     21077 MEMB     170      POPE     H17R     HAL2     0.900000E-01   1.00800           0   0.00000     -0.301140E-02
     21078 MEMB     170      POPE     H17S     HAL2     0.900000E-01   1.00800           0   0.00000     -0.301140E-02
     21079 MEMB     170      POPE     C218     CTL3    -0.270000       12.0110           0   0.00000     -0.301140E-02
     21080 MEMB     170      POPE     H18R     HAL3     0.900000E-01   1.00800           0   0.00000     -0.301140E-02
     21081 MEMB     170      POPE     H18S     HAL3     0.900000E-01   1.00800           0   0.00000     -0.301140E-02
     21082 MEMB     170      POPE     H18T     HAL3     0.900000E-01   1.00800           0   0.00000     -0.301140E-02
     21083 MEMB     170      POPE     C33      CTL2    -0.180000       12.0110           0   0.00000     -0.301140E-02
     21084 MEMB     170      POPE     H3X      HAL2     0.900000E-01   1.00800           0   0.00000     -0.301140E-02
     21085 MEMB     170      POPE     H3Y      HAL2     0.900000E-01   1.00800           0   0.00000     -0.301140E-02
     21086 MEMB     170      POPE     C34      CTL2    -0.180000       12.0110           0   0.00000     -0.301140E-02
     21087 MEMB     170      POPE     H4X      HAL2     0.900000E-01   1.00800           0   0.00000     -0.301140E-02
     21088 MEMB     170      POPE     H4Y      HAL2     0.900000E-01   1.00800           0   0.00000     -0.301140E-02
     21089 MEMB     170      POPE     C35      CTL2    -0.180000       12.0110           0   0.00000     -0.301140E-02
     21090 MEMB     170      POPE     H5X      HAL2     0.900000E-01   1.00800           0   0.00000     -0.301140E-02
     21091 MEMB     170      POPE     H5Y      HAL2     0.900000E-01   1.00800           0   0.00000     -0.301140E-02
     21092 MEMB     170      POPE     C36      CTL2    -0.180000       12.0110           0   0.00000     -0.301140E-02
     21093 MEMB     170      POPE     H6X      HAL2     0.900000E-01   1.00800           0   0.00000     -0.301140E-02
     21094 MEMB     170      POPE     H6Y      HAL2     0.900000E-01   1.00800           0   0.00000     -0.301140E-02
     21095 MEMB     170      POPE     C37      CTL2    -0.180000       12.0110           0   0.00000     -0.301140E-02
     21096 MEMB     170      POPE     H7X      HAL2     0.900000E-01   1.00800           0   0.00000     -0.301140E-02
     21097 MEMB     170      POPE     H7Y      HAL2     0.900000E-01   1.00800           0   0.00000     -0.301140E-02
     21098 MEMB     170      POPE     C38      CTL2    -0.180000       12.0110           0   0.00000     -0.301140E-02
     21099 MEMB     170      POPE     H8X      HAL2     0.900000E-01   1.00800           0   0.00000     -0.301140E-02
     21100 MEMB     170      POPE     H8Y      HAL2     0.900000E-01   1.00800           0   0.00000     -0.301140E-02
     21101 MEMB     170      POPE     C39      CTL2    -0.180000       12.0110           0   0.00000     -0.301140E-02
     21102 MEMB     170      POPE     H9X      HAL2     0.900000E-01   1.00800           0   0.00000     -0.301140E-02
     21103 MEMB     170      POPE     H9Y      HAL2     0.900000E-01   1.00800           0   0.00000     -0.301140E-02
     21104 MEMB     170      POPE     C310     CTL2    -0.180000       12.0110           0   0.00000     -0.301140E-02
     21105 MEMB     170      POPE     H10X     HAL2     0.900000E-01   1.00800           0   0.00000     -0.301140E-02
     21106 MEMB     170      POPE     H10Y     HAL2     0.900000E-01   1.00800           0   0.00000     -0.301140E-02
     21107 MEMB     170      POPE     C311     CTL2    -0.180000       12.0110           0   0.00000     -0.301140E-02
     21108 MEMB     170      POPE     H11X     HAL2     0.900000E-01   1.00800           0   0.00000     -0.301140E-02
     21109 MEMB     170      POPE     H11Y     HAL2     0.900000E-01   1.00800           0   0.00000     -0.301140E-02
     21110 MEMB     170      POPE     C312     CTL2    -0.180000       12.0110           0   0.00000     -0.301140E-02
     21111 MEMB     170      POPE     H12X     HAL2     0.900000E-01   1.00800           0   0.00000     -0.301140E-02
     21112 MEMB     170      POPE     H12Y     HAL2     0.900000E-01   1.00800           0   0.00000     -0.301140E-02
     21113 MEMB     170      POPE     C313     CTL2    -0.180000       12.0110           0   0.00000     -0.301140E-02
     21114 MEMB     170      POPE     H13X     HAL2     0.900000E-01   1.00800           0   0.00000     -0.301140E-02
     21115 MEMB     170      POPE     H13Y     HAL2     0.900000E-01   1.00800           0   0.00000     -0.301140E-02
     21116 MEMB     170      POPE     C314     CTL2    -0.180000       12.0110           0   0.00000     -0.301140E-02
     21117 MEMB     170      POPE     H14X     HAL2     0.900000E-01   1.00800           0   0.00000     -0.301140E-02
     21118 MEMB     170      POPE     H14Y     HAL2     0.900000E-01   1.00800           0   0.00000     -0.301140E-02
     21119 MEMB     170      POPE     C315     CTL2    -0.180000       12.0110           0   0.00000     -0.301140E-02
     21120 MEMB     170      POPE     H15X     HAL2     0.900000E-01   1.00800           0   0.00000     -0.301140E-02
     21121 MEMB     170      POPE     H15Y     HAL2     0.900000E-01   1.00800           0   0.00000     -0.301140E-02
     21122 MEMB     170      POPE     C316     CTL3    -0.270000       12.0110           0   0.00000     -0.301140E-02
     21123 MEMB     170      POPE     H16X     HAL3     0.900000E-01   1.00800           0   0.00000     -0.301140E-02
     21124 MEMB     170      POPE     H16Y     HAL3     0.900000E-01   1.00800           0   0.00000     -0.301140E-02
     21125 MEMB     170      POPE     H16Z     HAL3     0.900000E-01   1.00800           0   0.00000     -0.301140E-02
     21126 MEMB     171      PYPG     C13      CTL2     0.500000E-01   12.0110           0   0.00000     -0.301140E-02
     21127 MEMB     171      PYPG     H13A     HAL2     0.900000E-01   1.00800           0   0.00000     -0.301140E-02
     21128 MEMB     171      PYPG     H13B     HAL2     0.900000E-01   1.00800           0   0.00000     -0.301140E-02
     21129 MEMB     171      PYPG     OC3      OHL     -0.660000       15.9994           0   0.00000     -0.301140E-02
     21130 MEMB     171      PYPG     HO3      HOL      0.430000       1.00800           0   0.00000     -0.301140E-02
     21131 MEMB     171      PYPG     C12      CTL1     0.140000       12.0110           0   0.00000     -0.301140E-02
     21132 MEMB     171      PYPG     H12A     HAL1     0.900000E-01   1.00800           0   0.00000     -0.301140E-02
     21133 MEMB     171      PYPG     OC2      OHL     -0.660000       15.9994           0   0.00000     -0.301140E-02
     21134 MEMB     171      PYPG     HO2      HOL      0.430000       1.00800           0   0.00000     -0.301140E-02
     21135 MEMB     171      PYPG     C11      CTL2    -0.800000E-01   12.0110           0   0.00000     -0.301140E-02
     21136 MEMB     171      PYPG     H11A     HAL2     0.900000E-01   1.00800           0   0.00000     -0.301140E-02
     21137 MEMB     171      PYPG     H11B     HAL2     0.900000E-01   1.00800           0   0.00000     -0.301140E-02
     21138 MEMB     171      PYPG     P        PL        1.50000       30.9740           0   0.00000     -0.301140E-02
     21139 MEMB     171      PYPG     O13      O2L     -0.780000       15.9994           0   0.00000     -0.301140E-02
     21140 MEMB     171      PYPG     O14      O2L     -0.780000       15.9994           0   0.00000     -0.301140E-02
     21141 MEMB     171      PYPG     O11      OSLP    -0.570000       15.9994           0   0.00000     -0.301140E-02
     21142 MEMB     171      PYPG     O12      OSLP    -0.570000       15.9994           0   0.00000     -0.301140E-02
     21143 MEMB     171      PYPG     C1       CTL2    -0.800000E-01   12.0110           0   0.00000     -0.301140E-02
     21144 MEMB     171      PYPG     HA       HAL2     0.900000E-01   1.00800           0   0.00000     -0.301140E-02
     21145 MEMB     171      PYPG     HB       HAL2     0.900000E-01   1.00800           0   0.00000     -0.301140E-02
     21146 MEMB     171      PYPG     C2       CTL1     0.170000       12.0110           0   0.00000     -0.301140E-02
     21147 MEMB     171      PYPG     HS       HAL1     0.900000E-01   1.00800           0   0.00000     -0.301140E-02
     21148 MEMB     171      PYPG     O21      OSL     -0.490000       15.9994           0   0.00000     -0.301140E-02
     21149 MEMB     171      PYPG     C21      CL       0.900000       12.0110           0   0.00000     -0.301140E-02
     21150 MEMB     171      PYPG     O22      OBL     -0.630000       15.9994           0   0.00000     -0.301140E-02
     21151 MEMB     171      PYPG     C22      CTL2    -0.220000       12.0110           0   0.00000     -0.301140E-02
     21152 MEMB     171      PYPG     H2R      HAL2     0.900000E-01   1.00800           0   0.00000     -0.301140E-02
     21153 MEMB     171      PYPG     H2S      HAL2     0.900000E-01   1.00800           0   0.00000     -0.301140E-02
     21154 MEMB     171      PYPG     C3       CTL2     0.800000E-01   12.0110           0   0.00000     -0.301140E-02
     21155 MEMB     171      PYPG     HX       HAL2     0.900000E-01   1.00800           0   0.00000     -0.301140E-02
     21156 MEMB     171      PYPG     HY       HAL2     0.900000E-01   1.00800           0   0.00000     -0.301140E-02
     21157 MEMB     171      PYPG     O31      OSL     -0.490000       15.9994           0   0.00000     -0.301140E-02
     21158 MEMB     171      PYPG     C31      CL       0.900000       12.0110           0   0.00000     -0.301140E-02
     21159 MEMB     171      PYPG     O32      OBL     -0.630000       15.9994           0   0.00000     -0.301140E-02
     21160 MEMB     171      PYPG     C32      CTL2    -0.220000       12.0110           0   0.00000     -0.301140E-02
     21161 MEMB     171      PYPG     H2X      HAL2     0.900000E-01   1.00800           0   0.00000     -0.301140E-02
     21162 MEMB     171      PYPG     H2Y      HAL2     0.900000E-01   1.00800           0   0.00000     -0.301140E-02
     21163 MEMB     171      PYPG     C23      CTL2    -0.180000       12.0110           0   0.00000     -0.301140E-02
     21164 MEMB     171      PYPG     H3R      HAL2     0.900000E-01   1.00800           0   0.00000     -0.301140E-02
     21165 MEMB     171      PYPG     H3S      HAL2     0.900000E-01   1.00800           0   0.00000     -0.301140E-02
     21166 MEMB     171      PYPG     C24      CTL2    -0.180000       12.0110           0   0.00000     -0.301140E-02
     21167 MEMB     171      PYPG     H4R      HAL2     0.900000E-01   1.00800           0   0.00000     -0.301140E-02
     21168 MEMB     171      PYPG     H4S      HAL2     0.900000E-01   1.00800           0   0.00000     -0.301140E-02
     21169 MEMB     171      PYPG     C25      CTL2    -0.180000       12.0110           0   0.00000     -0.301140E-02
     21170 MEMB     171      PYPG     H5R      HAL2     0.900000E-01   1.00800           0   0.00000     -0.301140E-02
     21171 MEMB     171      PYPG     H5S      HAL2     0.900000E-01   1.00800           0   0.00000     -0.301140E-02
     21172 MEMB     171      PYPG     C26      CTL2    -0.180000       12.0110           0   0.00000     -0.301140E-02
     21173 MEMB     171      PYPG     H6R      HAL2     0.900000E-01   1.00800           0   0.00000     -0.301140E-02
     21174 MEMB     171      PYPG     H6S      HAL2     0.900000E-01   1.00800           0   0.00000     -0.301140E-02
     21175 MEMB     171      PYPG     C27      CTL2    -0.180000       12.0110           0   0.00000     -0.301140E-02
     21176 MEMB     171      PYPG     H7R      HAL2     0.900000E-01   1.00800           0   0.00000     -0.301140E-02
     21177 MEMB     171      PYPG     H7S      HAL2     0.900000E-01   1.00800           0   0.00000     -0.301140E-02
     21178 MEMB     171      PYPG     C28      CTL2    -0.180000       12.0110           0   0.00000     -0.301140E-02
     21179 MEMB     171      PYPG     H8R      HAL2     0.900000E-01   1.00800           0   0.00000     -0.301140E-02
     21180 MEMB     171      PYPG     H8S      HAL2     0.900000E-01   1.00800           0   0.00000     -0.301140E-02
     21181 MEMB     171      PYPG     C29      CEL1    -0.150000       12.0110           0   0.00000     -0.301140E-02
     21182 MEMB     171      PYPG     H9R      HEL1     0.150000       1.00800           0   0.00000     -0.301140E-02
     21183 MEMB     171      PYPG     C210     CEL1    -0.150000       12.0110           0   0.00000     -0.301140E-02
     21184 MEMB     171      PYPG     H10R     HEL1     0.150000       1.00800           0   0.00000     -0.301140E-02
     21185 MEMB     171      PYPG     C211     CTL2    -0.180000       12.0110           0   0.00000     -0.301140E-02
     21186 MEMB     171      PYPG     H11R     HAL2     0.900000E-01   1.00800           0   0.00000     -0.301140E-02
     21187 MEMB     171      PYPG     H11S     HAL2     0.900000E-01   1.00800           0   0.00000     -0.301140E-02
     21188 MEMB     171      PYPG     C212     CTL2    -0.180000       12.0110           0   0.00000     -0.301140E-02
     21189 MEMB     171      PYPG     H12R     HAL2     0.900000E-01   1.00800           0   0.00000     -0.301140E-02
     21190 MEMB     171      PYPG     H12S     HAL2     0.900000E-01   1.00800           0   0.00000     -0.301140E-02
     21191 MEMB     171      PYPG     C213     CTL2    -0.180000       12.0110           0   0.00000     -0.301140E-02
     21192 MEMB     171      PYPG     H13R     HAL2     0.900000E-01   1.00800           0   0.00000     -0.301140E-02
     21193 MEMB     171      PYPG     H13S     HAL2     0.900000E-01   1.00800           0   0.00000     -0.301140E-02
     21194 MEMB     171      PYPG     C214     CTL2    -0.180000       12.0110           0   0.00000     -0.301140E-02
     21195 MEMB     171      PYPG     H14R     HAL2     0.900000E-01   1.00800           0   0.00000     -0.301140E-02
     21196 MEMB     171      PYPG     H14S     HAL2     0.900000E-01   1.00800           0   0.00000     -0.301140E-02
     21197 MEMB     171      PYPG     C215     CTL2    -0.180000       12.0110           0   0.00000     -0.301140E-02
     21198 MEMB     171      PYPG     H15R     HAL2     0.900000E-01   1.00800           0   0.00000     -0.301140E-02
     21199 MEMB     171      PYPG     H15S     HAL2     0.900000E-01   1.00800           0   0.00000     -0.301140E-02
     21200 MEMB     171      PYPG     C216     CTL3    -0.270000       12.0110           0   0.00000     -0.301140E-02
     21201 MEMB     171      PYPG     H16R     HAL3     0.900000E-01   1.00800           0   0.00000     -0.301140E-02
     21202 MEMB     171      PYPG     H16S     HAL3     0.900000E-01   1.00800           0   0.00000     -0.301140E-02
     21203 MEMB     171      PYPG     H16T     HAL3     0.900000E-01   1.00800           0   0.00000     -0.301140E-02
     21204 MEMB     171      PYPG     C33      CTL2    -0.180000       12.0110           0   0.00000     -0.301140E-02
     21205 MEMB     171      PYPG     H3X      HAL2     0.900000E-01   1.00800           0   0.00000     -0.301140E-02
     21206 MEMB     171      PYPG     H3Y      HAL2     0.900000E-01   1.00800           0   0.00000     -0.301140E-02
     21207 MEMB     171      PYPG     C34      CTL2    -0.180000       12.0110           0   0.00000     -0.301140E-02
     21208 MEMB     171      PYPG     H4X      HAL2     0.900000E-01   1.00800           0   0.00000     -0.301140E-02
     21209 MEMB     171      PYPG     H4Y      HAL2     0.900000E-01   1.00800           0   0.00000     -0.301140E-02
     21210 MEMB     171      PYPG     C35      CTL2    -0.180000       12.0110           0   0.00000     -0.301140E-02
     21211 MEMB     171      PYPG     H5X      HAL2     0.900000E-01   1.00800           0   0.00000     -0.301140E-02
     21212 MEMB     171      PYPG     H5Y      HAL2     0.900000E-01   1.00800           0   0.00000     -0.301140E-02
     21213 MEMB     171      PYPG     C36      CTL2    -0.180000       12.0110           0   0.00000     -0.301140E-02
     21214 MEMB     171      PYPG     H6X      HAL2     0.900000E-01   1.00800           0   0.00000     -0.301140E-02
     21215 MEMB     171      PYPG     H6Y      HAL2     0.900000E-01   1.00800           0   0.00000     -0.301140E-02
     21216 MEMB     171      PYPG     C37      CTL2    -0.180000       12.0110           0   0.00000     -0.301140E-02
     21217 MEMB     171      PYPG     H7X      HAL2     0.900000E-01   1.00800           0   0.00000     -0.301140E-02
     21218 MEMB     171      PYPG     H7Y      HAL2     0.900000E-01   1.00800           0   0.00000     -0.301140E-02
     21219 MEMB     171      PYPG     C38      CTL2    -0.180000       12.0110           0   0.00000     -0.301140E-02
     21220 MEMB     171      PYPG     H8X      HAL2     0.900000E-01   1.00800           0   0.00000     -0.301140E-02
     21221 MEMB     171      PYPG     H8Y      HAL2     0.900000E-01   1.00800           0   0.00000     -0.301140E-02
     21222 MEMB     171      PYPG     C39      CTL2    -0.180000       12.0110           0   0.00000     -0.301140E-02
     21223 MEMB     171      PYPG     H9X      HAL2     0.900000E-01   1.00800           0   0.00000     -0.301140E-02
     21224 MEMB     171      PYPG     H9Y      HAL2     0.900000E-01   1.00800           0   0.00000     -0.301140E-02
     21225 MEMB     171      PYPG     C310     CTL2    -0.180000       12.0110           0   0.00000     -0.301140E-02
     21226 MEMB     171      PYPG     H10X     HAL2     0.900000E-01   1.00800           0   0.00000     -0.301140E-02
     21227 MEMB     171      PYPG     H10Y     HAL2     0.900000E-01   1.00800           0   0.00000     -0.301140E-02
     21228 MEMB     171      PYPG     C311     CTL2    -0.180000       12.0110           0   0.00000     -0.301140E-02
     21229 MEMB     171      PYPG     H11X     HAL2     0.900000E-01   1.00800           0   0.00000     -0.301140E-02
     21230 MEMB     171      PYPG     H11Y     HAL2     0.900000E-01   1.00800           0   0.00000     -0.301140E-02
     21231 MEMB     171      PYPG     C312     CTL2    -0.180000       12.0110           0   0.00000     -0.301140E-02
     21232 MEMB     171      PYPG     H12X     HAL2     0.900000E-01   1.00800           0   0.00000     -0.301140E-02
     21233 MEMB     171      PYPG     H12Y     HAL2     0.900000E-01   1.00800           0   0.00000     -0.301140E-02
     21234 MEMB     171      PYPG     C313     CTL2    -0.180000       12.0110           0   0.00000     -0.301140E-02
     21235 MEMB     171      PYPG     H13X     HAL2     0.900000E-01   1.00800           0   0.00000     -0.301140E-02
     21236 MEMB     171      PYPG     H13Y     HAL2     0.900000E-01   1.00800           0   0.00000     -0.301140E-02
     21237 MEMB     171      PYPG     C314     CTL2    -0.180000       12.0110           0   0.00000     -0.301140E-02
     21238 MEMB     171      PYPG     H14X     HAL2     0.900000E-01   1.00800           0   0.00000     -0.301140E-02
     21239 MEMB     171      PYPG     H14Y     HAL2     0.900000E-01   1.00800           0   0.00000     -0.301140E-02
     21240 MEMB     171      PYPG     C315     CTL2    -0.180000       12.0110           0   0.00000     -0.301140E-02
     21241 MEMB     171      PYPG     H15X     HAL2     0.900000E-01   1.00800           0   0.00000     -0.301140E-02
     21242 MEMB     171      PYPG     H15Y     HAL2     0.900000E-01   1.00800           0   0.00000     -0.301140E-02
     21243 MEMB     171      PYPG     C316     CTL3    -0.270000       12.0110           0   0.00000     -0.301140E-02
     21244 MEMB     171      PYPG     H16X     HAL3     0.900000E-01   1.00800           0   0.00000     -0.301140E-02
     21245 MEMB     171      PYPG     H16Y     HAL3     0.900000E-01   1.00800           0   0.00000     -0.301140E-02
     21246 MEMB     171      PYPG     H16Z     HAL3     0.900000E-01   1.00800           0   0.00000     -0.301140E-02
     21247 MEMB     172      PMPE     N        NH3L    -0.300000       14.0070           0   0.00000     -0.301140E-02
     21248 MEMB     172      PMPE     HN1      HCL      0.330000       1.00800           0   0.00000     -0.301140E-02
     21249 MEMB     172      PMPE     HN2      HCL      0.330000       1.00800           0   0.00000     -0.301140E-02
     21250 MEMB     172      PMPE     HN3      HCL      0.330000       1.00800           0   0.00000     -0.301140E-02
     21251 MEMB     172      PMPE     C12      CTL2     0.130000       12.0110           0   0.00000     -0.301140E-02
     21252 MEMB     172      PMPE     H12A     HAL2     0.900000E-01   1.00800           0   0.00000     -0.301140E-02
     21253 MEMB     172      PMPE     H12B     HAL2     0.900000E-01   1.00800           0   0.00000     -0.301140E-02
     21254 MEMB     172      PMPE     C11      CTL2    -0.800000E-01   12.0110           0   0.00000     -0.301140E-02
     21255 MEMB     172      PMPE     H11A     HAL2     0.900000E-01   1.00800           0   0.00000     -0.301140E-02
     21256 MEMB     172      PMPE     H11B     HAL2     0.900000E-01   1.00800           0   0.00000     -0.301140E-02
     21257 MEMB     172      PMPE     P        PL        1.50000       30.9740           0   0.00000     -0.301140E-02
     21258 MEMB     172      PMPE     O13      O2L     -0.780000       15.9994           0   0.00000     -0.301140E-02
     21259 MEMB     172      PMPE     O14      O2L     -0.780000       15.9994           0   0.00000     -0.301140E-02
     21260 MEMB     172      PMPE     O11      OSLP    -0.570000       15.9994           0   0.00000     -0.301140E-02
     21261 MEMB     172      PMPE     O12      OSLP    -0.570000       15.9994           0   0.00000     -0.301140E-02
     21262 MEMB     172      PMPE     C1       CTL2    -0.800000E-01   12.0110           0   0.00000     -0.301140E-02
     21263 MEMB     172      PMPE     HA       HAL2     0.900000E-01   1.00800           0   0.00000     -0.301140E-02
     21264 MEMB     172      PMPE     HB       HAL2     0.900000E-01   1.00800           0   0.00000     -0.301140E-02
     21265 MEMB     172      PMPE     C2       CTL1     0.170000       12.0110           0   0.00000     -0.301140E-02
     21266 MEMB     172      PMPE     HS       HAL1     0.900000E-01   1.00800           0   0.00000     -0.301140E-02
     21267 MEMB     172      PMPE     O21      OSL     -0.490000       15.9994           0   0.00000     -0.301140E-02
     21268 MEMB     172      PMPE     C21      CL       0.900000       12.0110           0   0.00000     -0.301140E-02
     21269 MEMB     172      PMPE     O22      OBL     -0.630000       15.9994           0   0.00000     -0.301140E-02
     21270 MEMB     172      PMPE     C22      CTL2    -0.220000       12.0110           0   0.00000     -0.301140E-02
     21271 MEMB     172      PMPE     H2R      HAL2     0.900000E-01   1.00800           0   0.00000     -0.301140E-02
     21272 MEMB     172      PMPE     H2S      HAL2     0.900000E-01   1.00800           0   0.00000     -0.301140E-02
     21273 MEMB     172      PMPE     C3       CTL2     0.800000E-01   12.0110           0   0.00000     -0.301140E-02
     21274 MEMB     172      PMPE     HX       HAL2     0.900000E-01   1.00800           0   0.00000     -0.301140E-02
     21275 MEMB     172      PMPE     HY       HAL2     0.900000E-01   1.00800           0   0.00000     -0.301140E-02
     21276 MEMB     172      PMPE     O31      OSL     -0.490000       15.9994           0   0.00000     -0.301140E-02
     21277 MEMB     172      PMPE     C31      CL       0.900000       12.0110           0   0.00000     -0.301140E-02
     21278 MEMB     172      PMPE     O32      OBL     -0.630000       15.9994           0   0.00000     -0.301140E-02
     21279 MEMB     172      PMPE     C32      CTL2    -0.220000       12.0110           0   0.00000     -0.301140E-02
     21280 MEMB     172      PMPE     H2X      HAL2     0.900000E-01   1.00800           0   0.00000     -0.301140E-02
     21281 MEMB     172      PMPE     H2Y      HAL2     0.900000E-01   1.00800           0   0.00000     -0.301140E-02
     21282 MEMB     172      PMPE     C23      CTL2    -0.180000       12.0110           0   0.00000     -0.301140E-02
     21283 MEMB     172      PMPE     H3R      HAL2     0.900000E-01   1.00800           0   0.00000     -0.301140E-02
     21284 MEMB     172      PMPE     H3S      HAL2     0.900000E-01   1.00800           0   0.00000     -0.301140E-02
     21285 MEMB     172      PMPE     C24      CTL2    -0.180000       12.0110           0   0.00000     -0.301140E-02
     21286 MEMB     172      PMPE     H4R      HAL2     0.900000E-01   1.00800           0   0.00000     -0.301140E-02
     21287 MEMB     172      PMPE     H4S      HAL2     0.900000E-01   1.00800           0   0.00000     -0.301140E-02
     21288 MEMB     172      PMPE     C25      CTL2    -0.180000       12.0110           0   0.00000     -0.301140E-02
     21289 MEMB     172      PMPE     H5R      HAL2     0.900000E-01   1.00800           0   0.00000     -0.301140E-02
     21290 MEMB     172      PMPE     H5S      HAL2     0.900000E-01   1.00800           0   0.00000     -0.301140E-02
     21291 MEMB     172      PMPE     C26      CTL2    -0.180000       12.0110           0   0.00000     -0.301140E-02
     21292 MEMB     172      PMPE     H6R      HAL2     0.900000E-01   1.00800           0   0.00000     -0.301140E-02
     21293 MEMB     172      PMPE     H6S      HAL2     0.900000E-01   1.00800           0   0.00000     -0.301140E-02
     21294 MEMB     172      PMPE     C27      CTL2    -0.180000       12.0110           0   0.00000     -0.301140E-02
     21295 MEMB     172      PMPE     H7R      HAL2     0.900000E-01   1.00800           0   0.00000     -0.301140E-02
     21296 MEMB     172      PMPE     H7S      HAL2     0.900000E-01   1.00800           0   0.00000     -0.301140E-02
     21297 MEMB     172      PMPE     C28      CTL2    -0.180000       12.0110           0   0.00000     -0.301140E-02
     21298 MEMB     172      PMPE     H8R      HAL2     0.900000E-01   1.00800           0   0.00000     -0.301140E-02
     21299 MEMB     172      PMPE     H8S      HAL2     0.900000E-01   1.00800           0   0.00000     -0.301140E-02
     21300 MEMB     172      PMPE     C29      CG3RC1  -0.900000E-01   12.0110           0   0.00000     -0.301140E-02
     21301 MEMB     172      PMPE     H9R      HGA1     0.900000E-01   1.00800           0   0.00000     -0.301140E-02
     21302 MEMB     172      PMPE     C217     CG3C31  -0.180000       12.0110           0   0.00000     -0.301140E-02
     21303 MEMB     172      PMPE     H17R     HGA2     0.900000E-01   1.00800           0   0.00000     -0.301140E-02
     21304 MEMB     172      PMPE     H17S     HGA2     0.900000E-01   1.00800           0   0.00000     -0.301140E-02
     21305 MEMB     172      PMPE     C210     CG3RC1  -0.900000E-01   12.0110           0   0.00000     -0.301140E-02
     21306 MEMB     172      PMPE     H10R     HGA1     0.900000E-01   1.00800           0   0.00000     -0.301140E-02
     21307 MEMB     172      PMPE     C211     CTL2    -0.180000       12.0110           0   0.00000     -0.301140E-02
     21308 MEMB     172      PMPE     H11R     HAL2     0.900000E-01   1.00800           0   0.00000     -0.301140E-02
     21309 MEMB     172      PMPE     H11S     HAL2     0.900000E-01   1.00800           0   0.00000     -0.301140E-02
     21310 MEMB     172      PMPE     C212     CTL2    -0.180000       12.0110           0   0.00000     -0.301140E-02
     21311 MEMB     172      PMPE     H12R     HAL2     0.900000E-01   1.00800           0   0.00000     -0.301140E-02
     21312 MEMB     172      PMPE     H12S     HAL2     0.900000E-01   1.00800           0   0.00000     -0.301140E-02
     21313 MEMB     172      PMPE     C213     CTL2    -0.180000       12.0110           0   0.00000     -0.301140E-02
     21314 MEMB     172      PMPE     H13R     HAL2     0.900000E-01   1.00800           0   0.00000     -0.301140E-02
     21315 MEMB     172      PMPE     H13S     HAL2     0.900000E-01   1.00800           0   0.00000     -0.301140E-02
     21316 MEMB     172      PMPE     C214     CTL2    -0.180000       12.0110           0   0.00000     -0.301140E-02
     21317 MEMB     172      PMPE     H14R     HAL2     0.900000E-01   1.00800           0   0.00000     -0.301140E-02
     21318 MEMB     172      PMPE     H14S     HAL2     0.900000E-01   1.00800           0   0.00000     -0.301140E-02
     21319 MEMB     172      PMPE     C215     CTL2    -0.180000       12.0110           0   0.00000     -0.301140E-02
     21320 MEMB     172      PMPE     H15R     HAL2     0.900000E-01   1.00800           0   0.00000     -0.301140E-02
     21321 MEMB     172      PMPE     H15S     HAL2     0.900000E-01   1.00800           0   0.00000     -0.301140E-02
     21322 MEMB     172      PMPE     C216     CTL3    -0.270000       12.0110           0   0.00000     -0.301140E-02
     21323 MEMB     172      PMPE     H16R     HAL3     0.900000E-01   1.00800           0   0.00000     -0.301140E-02
     21324 MEMB     172      PMPE     H16S     HAL3     0.900000E-01   1.00800           0   0.00000     -0.301140E-02
     21325 MEMB     172      PMPE     H16T     HAL3     0.900000E-01   1.00800           0   0.00000     -0.301140E-02
     21326 MEMB     172      PMPE     C33      CTL2    -0.180000       12.0110           0   0.00000     -0.301140E-02
     21327 MEMB     172      PMPE     H3X      HAL2     0.900000E-01   1.00800           0   0.00000     -0.301140E-02
     21328 MEMB     172      PMPE     H3Y      HAL2     0.900000E-01   1.00800           0   0.00000     -0.301140E-02
     21329 MEMB     172      PMPE     C34      CTL2    -0.180000       12.0110           0   0.00000     -0.301140E-02
     21330 MEMB     172      PMPE     H4X      HAL2     0.900000E-01   1.00800           0   0.00000     -0.301140E-02
     21331 MEMB     172      PMPE     H4Y      HAL2     0.900000E-01   1.00800           0   0.00000     -0.301140E-02
     21332 MEMB     172      PMPE     C35      CTL2    -0.180000       12.0110           0   0.00000     -0.301140E-02
     21333 MEMB     172      PMPE     H5X      HAL2     0.900000E-01   1.00800           0   0.00000     -0.301140E-02
     21334 MEMB     172      PMPE     H5Y      HAL2     0.900000E-01   1.00800           0   0.00000     -0.301140E-02
     21335 MEMB     172      PMPE     C36      CTL2    -0.180000       12.0110           0   0.00000     -0.301140E-02
     21336 MEMB     172      PMPE     H6X      HAL2     0.900000E-01   1.00800           0   0.00000     -0.301140E-02
     21337 MEMB     172      PMPE     H6Y      HAL2     0.900000E-01   1.00800           0   0.00000     -0.301140E-02
     21338 MEMB     172      PMPE     C37      CTL2    -0.180000       12.0110           0   0.00000     -0.301140E-02
     21339 MEMB     172      PMPE     H7X      HAL2     0.900000E-01   1.00800           0   0.00000     -0.301140E-02
     21340 MEMB     172      PMPE     H7Y      HAL2     0.900000E-01   1.00800           0   0.00000     -0.301140E-02
     21341 MEMB     172      PMPE     C38      CTL2    -0.180000       12.0110           0   0.00000     -0.301140E-02
     21342 MEMB     172      PMPE     H8X      HAL2     0.900000E-01   1.00800           0   0.00000     -0.301140E-02
     21343 MEMB     172      PMPE     H8Y      HAL2     0.900000E-01   1.00800           0   0.00000     -0.301140E-02
     21344 MEMB     172      PMPE     C39      CTL2    -0.180000       12.0110           0   0.00000     -0.301140E-02
     21345 MEMB     172      PMPE     H9X      HAL2     0.900000E-01   1.00800           0   0.00000     -0.301140E-02
     21346 MEMB     172      PMPE     H9Y      HAL2     0.900000E-01   1.00800           0   0.00000     -0.301140E-02
     21347 MEMB     172      PMPE     C310     CTL2    -0.180000       12.0110           0   0.00000     -0.301140E-02
     21348 MEMB     172      PMPE     H10X     HAL2     0.900000E-01   1.00800           0   0.00000     -0.301140E-02
     21349 MEMB     172      PMPE     H10Y     HAL2     0.900000E-01   1.00800           0   0.00000     -0.301140E-02
     21350 MEMB     172      PMPE     C311     CTL2    -0.180000       12.0110           0   0.00000     -0.301140E-02
     21351 MEMB     172      PMPE     H11X     HAL2     0.900000E-01   1.00800           0   0.00000     -0.301140E-02
     21352 MEMB     172      PMPE     H11Y     HAL2     0.900000E-01   1.00800           0   0.00000     -0.301140E-02
     21353 MEMB     172      PMPE     C312     CTL2    -0.180000       12.0110           0   0.00000     -0.301140E-02
     21354 MEMB     172      PMPE     H12X     HAL2     0.900000E-01   1.00800           0   0.00000     -0.301140E-02
     21355 MEMB     172      PMPE     H12Y     HAL2     0.900000E-01   1.00800           0   0.00000     -0.301140E-02
     21356 MEMB     172      PMPE     C313     CTL2    -0.180000       12.0110           0   0.00000     -0.301140E-02
     21357 MEMB     172      PMPE     H13X     HAL2     0.900000E-01   1.00800           0   0.00000     -0.301140E-02
     21358 MEMB     172      PMPE     H13Y     HAL2     0.900000E-01   1.00800           0   0.00000     -0.301140E-02
     21359 MEMB     172      PMPE     C314     CTL2    -0.180000       12.0110           0   0.00000     -0.301140E-02
     21360 MEMB     172      PMPE     H14X     HAL2     0.900000E-01   1.00800           0   0.00000     -0.301140E-02
     21361 MEMB     172      PMPE     H14Y     HAL2     0.900000E-01   1.00800           0   0.00000     -0.301140E-02
     21362 MEMB     172      PMPE     C315     CTL2    -0.180000       12.0110           0   0.00000     -0.301140E-02
     21363 MEMB     172      PMPE     H15X     HAL2     0.900000E-01   1.00800           0   0.00000     -0.301140E-02
     21364 MEMB     172      PMPE     H15Y     HAL2     0.900000E-01   1.00800           0   0.00000     -0.301140E-02
     21365 MEMB     172      PMPE     C316     CTL3    -0.270000       12.0110           0   0.00000     -0.301140E-02
     21366 MEMB     172      PMPE     H16X     HAL3     0.900000E-01   1.00800           0   0.00000     -0.301140E-02
     21367 MEMB     172      PMPE     H16Y     HAL3     0.900000E-01   1.00800           0   0.00000     -0.301140E-02
     21368 MEMB     172      PMPE     H16Z     HAL3     0.900000E-01   1.00800           0   0.00000     -0.301140E-02
     21369 MEMB     173      PMPE     N        NH3L    -0.300000       14.0070           0   0.00000     -0.301140E-02
     21370 MEMB     173      PMPE     HN1      HCL      0.330000       1.00800           0   0.00000     -0.301140E-02
     21371 MEMB     173      PMPE     HN2      HCL      0.330000       1.00800           0   0.00000     -0.301140E-02
     21372 MEMB     173      PMPE     HN3      HCL      0.330000       1.00800           0   0.00000     -0.301140E-02
     21373 MEMB     173      PMPE     C12      CTL2     0.130000       12.0110           0   0.00000     -0.301140E-02
     21374 MEMB     173      PMPE     H12A     HAL2     0.900000E-01   1.00800           0   0.00000     -0.301140E-02
     21375 MEMB     173      PMPE     H12B     HAL2     0.900000E-01   1.00800           0   0.00000     -0.301140E-02
     21376 MEMB     173      PMPE     C11      CTL2    -0.800000E-01   12.0110           0   0.00000     -0.301140E-02
     21377 MEMB     173      PMPE     H11A     HAL2     0.900000E-01   1.00800           0   0.00000     -0.301140E-02
     21378 MEMB     173      PMPE     H11B     HAL2     0.900000E-01   1.00800           0   0.00000     -0.301140E-02
     21379 MEMB     173      PMPE     P        PL        1.50000       30.9740           0   0.00000     -0.301140E-02
     21380 MEMB     173      PMPE     O13      O2L     -0.780000       15.9994           0   0.00000     -0.301140E-02
     21381 MEMB     173      PMPE     O14      O2L     -0.780000       15.9994           0   0.00000     -0.301140E-02
     21382 MEMB     173      PMPE     O11      OSLP    -0.570000       15.9994           0   0.00000     -0.301140E-02
     21383 MEMB     173      PMPE     O12      OSLP    -0.570000       15.9994           0   0.00000     -0.301140E-02
     21384 MEMB     173      PMPE     C1       CTL2    -0.800000E-01   12.0110           0   0.00000     -0.301140E-02
     21385 MEMB     173      PMPE     HA       HAL2     0.900000E-01   1.00800           0   0.00000     -0.301140E-02
     21386 MEMB     173      PMPE     HB       HAL2     0.900000E-01   1.00800           0   0.00000     -0.301140E-02
     21387 MEMB     173      PMPE     C2       CTL1     0.170000       12.0110           0   0.00000     -0.301140E-02
     21388 MEMB     173      PMPE     HS       HAL1     0.900000E-01   1.00800           0   0.00000     -0.301140E-02
     21389 MEMB     173      PMPE     O21      OSL     -0.490000       15.9994           0   0.00000     -0.301140E-02
     21390 MEMB     173      PMPE     C21      CL       0.900000       12.0110           0   0.00000     -0.301140E-02
     21391 MEMB     173      PMPE     O22      OBL     -0.630000       15.9994           0   0.00000     -0.301140E-02
     21392 MEMB     173      PMPE     C22      CTL2    -0.220000       12.0110           0   0.00000     -0.301140E-02
     21393 MEMB     173      PMPE     H2R      HAL2     0.900000E-01   1.00800           0   0.00000     -0.301140E-02
     21394 MEMB     173      PMPE     H2S      HAL2     0.900000E-01   1.00800           0   0.00000     -0.301140E-02
     21395 MEMB     173      PMPE     C3       CTL2     0.800000E-01   12.0110           0   0.00000     -0.301140E-02
     21396 MEMB     173      PMPE     HX       HAL2     0.900000E-01   1.00800           0   0.00000     -0.301140E-02
     21397 MEMB     173      PMPE     HY       HAL2     0.900000E-01   1.00800           0   0.00000     -0.301140E-02
     21398 MEMB     173      PMPE     O31      OSL     -0.490000       15.9994           0   0.00000     -0.301140E-02
     21399 MEMB     173      PMPE     C31      CL       0.900000       12.0110           0   0.00000     -0.301140E-02
     21400 MEMB     173      PMPE     O32      OBL     -0.630000       15.9994           0   0.00000     -0.301140E-02
     21401 MEMB     173      PMPE     C32      CTL2    -0.220000       12.0110           0   0.00000     -0.301140E-02
     21402 MEMB     173      PMPE     H2X      HAL2     0.900000E-01   1.00800           0   0.00000     -0.301140E-02
     21403 MEMB     173      PMPE     H2Y      HAL2     0.900000E-01   1.00800           0   0.00000     -0.301140E-02
     21404 MEMB     173      PMPE     C23      CTL2    -0.180000       12.0110           0   0.00000     -0.301140E-02
     21405 MEMB     173      PMPE     H3R      HAL2     0.900000E-01   1.00800           0   0.00000     -0.301140E-02
     21406 MEMB     173      PMPE     H3S      HAL2     0.900000E-01   1.00800           0   0.00000     -0.301140E-02
     21407 MEMB     173      PMPE     C24      CTL2    -0.180000       12.0110           0   0.00000     -0.301140E-02
     21408 MEMB     173      PMPE     H4R      HAL2     0.900000E-01   1.00800           0   0.00000     -0.301140E-02
     21409 MEMB     173      PMPE     H4S      HAL2     0.900000E-01   1.00800           0   0.00000     -0.301140E-02
     21410 MEMB     173      PMPE     C25      CTL2    -0.180000       12.0110           0   0.00000     -0.301140E-02
     21411 MEMB     173      PMPE     H5R      HAL2     0.900000E-01   1.00800           0   0.00000     -0.301140E-02
     21412 MEMB     173      PMPE     H5S      HAL2     0.900000E-01   1.00800           0   0.00000     -0.301140E-02
     21413 MEMB     173      PMPE     C26      CTL2    -0.180000       12.0110           0   0.00000     -0.301140E-02
     21414 MEMB     173      PMPE     H6R      HAL2     0.900000E-01   1.00800           0   0.00000     -0.301140E-02
     21415 MEMB     173      PMPE     H6S      HAL2     0.900000E-01   1.00800           0   0.00000     -0.301140E-02
     21416 MEMB     173      PMPE     C27      CTL2    -0.180000       12.0110           0   0.00000     -0.301140E-02
     21417 MEMB     173      PMPE     H7R      HAL2     0.900000E-01   1.00800           0   0.00000     -0.301140E-02
     21418 MEMB     173      PMPE     H7S      HAL2     0.900000E-01   1.00800           0   0.00000     -0.301140E-02
     21419 MEMB     173      PMPE     C28      CTL2    -0.180000       12.0110           0   0.00000     -0.301140E-02
     21420 MEMB     173      PMPE     H8R      HAL2     0.900000E-01   1.00800           0   0.00000     -0.301140E-02
     21421 MEMB     173      PMPE     H8S      HAL2     0.900000E-01   1.00800           0   0.00000     -0.301140E-02
     21422 MEMB     173      PMPE     C29      CG3RC1  -0.900000E-01   12.0110           0   0.00000     -0.301140E-02
     21423 MEMB     173      PMPE     H9R      HGA1     0.900000E-01   1.00800           0   0.00000     -0.301140E-02
     21424 MEMB     173      PMPE     C217     CG3C31  -0.180000       12.0110           0   0.00000     -0.301140E-02
     21425 MEMB     173      PMPE     H17R     HGA2     0.900000E-01   1.00800           0   0.00000     -0.301140E-02
     21426 MEMB     173      PMPE     H17S     HGA2     0.900000E-01   1.00800           0   0.00000     -0.301140E-02
     21427 MEMB     173      PMPE     C210     CG3RC1  -0.900000E-01   12.0110           0   0.00000     -0.301140E-02
     21428 MEMB     173      PMPE     H10R     HGA1     0.900000E-01   1.00800           0   0.00000     -0.301140E-02
     21429 MEMB     173      PMPE     C211     CTL2    -0.180000       12.0110           0   0.00000     -0.301140E-02
     21430 MEMB     173      PMPE     H11R     HAL2     0.900000E-01   1.00800           0   0.00000     -0.301140E-02
     21431 MEMB     173      PMPE     H11S     HAL2     0.900000E-01   1.00800           0   0.00000     -0.301140E-02
     21432 MEMB     173      PMPE     C212     CTL2    -0.180000       12.0110           0   0.00000     -0.301140E-02
     21433 MEMB     173      PMPE     H12R     HAL2     0.900000E-01   1.00800           0   0.00000     -0.301140E-02
     21434 MEMB     173      PMPE     H12S     HAL2     0.900000E-01   1.00800           0   0.00000     -0.301140E-02
     21435 MEMB     173      PMPE     C213     CTL2    -0.180000       12.0110           0   0.00000     -0.301140E-02
     21436 MEMB     173      PMPE     H13R     HAL2     0.900000E-01   1.00800           0   0.00000     -0.301140E-02
     21437 MEMB     173      PMPE     H13S     HAL2     0.900000E-01   1.00800           0   0.00000     -0.301140E-02
     21438 MEMB     173      PMPE     C214     CTL2    -0.180000       12.0110           0   0.00000     -0.301140E-02
     21439 MEMB     173      PMPE     H14R     HAL2     0.900000E-01   1.00800           0   0.00000     -0.301140E-02
     21440 MEMB     173      PMPE     H14S     HAL2     0.900000E-01   1.00800           0   0.00000     -0.301140E-02
     21441 MEMB     173      PMPE     C215     CTL2    -0.180000       12.0110           0   0.00000     -0.301140E-02
     21442 MEMB     173      PMPE     H15R     HAL2     0.900000E-01   1.00800           0   0.00000     -0.301140E-02
     21443 MEMB     173      PMPE     H15S     HAL2     0.900000E-01   1.00800           0   0.00000     -0.301140E-02
     21444 MEMB     173      PMPE     C216     CTL3    -0.270000       12.0110           0   0.00000     -0.301140E-02
     21445 MEMB     173      PMPE     H16R     HAL3     0.900000E-01   1.00800           0   0.00000     -0.301140E-02
     21446 MEMB     173      PMPE     H16S     HAL3     0.900000E-01   1.00800           0   0.00000     -0.301140E-02
     21447 MEMB     173      PMPE     H16T     HAL3     0.900000E-01   1.00800           0   0.00000     -0.301140E-02
     21448 MEMB     173      PMPE     C33      CTL2    -0.180000       12.0110           0   0.00000     -0.301140E-02
     21449 MEMB     173      PMPE     H3X      HAL2     0.900000E-01   1.00800           0   0.00000     -0.301140E-02
     21450 MEMB     173      PMPE     H3Y      HAL2     0.900000E-01   1.00800           0   0.00000     -0.301140E-02
     21451 MEMB     173      PMPE     C34      CTL2    -0.180000       12.0110           0   0.00000     -0.301140E-02
     21452 MEMB     173      PMPE     H4X      HAL2     0.900000E-01   1.00800           0   0.00000     -0.301140E-02
     21453 MEMB     173      PMPE     H4Y      HAL2     0.900000E-01   1.00800           0   0.00000     -0.301140E-02
     21454 MEMB     173      PMPE     C35      CTL2    -0.180000       12.0110           0   0.00000     -0.301140E-02
     21455 MEMB     173      PMPE     H5X      HAL2     0.900000E-01   1.00800           0   0.00000     -0.301140E-02
     21456 MEMB     173      PMPE     H5Y      HAL2     0.900000E-01   1.00800           0   0.00000     -0.301140E-02
     21457 MEMB     173      PMPE     C36      CTL2    -0.180000       12.0110           0   0.00000     -0.301140E-02
     21458 MEMB     173      PMPE     H6X      HAL2     0.900000E-01   1.00800           0   0.00000     -0.301140E-02
     21459 MEMB     173      PMPE     H6Y      HAL2     0.900000E-01   1.00800           0   0.00000     -0.301140E-02
     21460 MEMB     173      PMPE     C37      CTL2    -0.180000       12.0110           0   0.00000     -0.301140E-02
     21461 MEMB     173      PMPE     H7X      HAL2     0.900000E-01   1.00800           0   0.00000     -0.301140E-02
     21462 MEMB     173      PMPE     H7Y      HAL2     0.900000E-01   1.00800           0   0.00000     -0.301140E-02
     21463 MEMB     173      PMPE     C38      CTL2    -0.180000       12.0110           0   0.00000     -0.301140E-02
     21464 MEMB     173      PMPE     H8X      HAL2     0.900000E-01   1.00800           0   0.00000     -0.301140E-02
     21465 MEMB     173      PMPE     H8Y      HAL2     0.900000E-01   1.00800           0   0.00000     -0.301140E-02
     21466 MEMB     173      PMPE     C39      CTL2    -0.180000       12.0110           0   0.00000     -0.301140E-02
     21467 MEMB     173      PMPE     H9X      HAL2     0.900000E-01   1.00800           0   0.00000     -0.301140E-02
     21468 MEMB     173      PMPE     H9Y      HAL2     0.900000E-01   1.00800           0   0.00000     -0.301140E-02
     21469 MEMB     173      PMPE     C310     CTL2    -0.180000       12.0110           0   0.00000     -0.301140E-02
     21470 MEMB     173      PMPE     H10X     HAL2     0.900000E-01   1.00800           0   0.00000     -0.301140E-02
     21471 MEMB     173      PMPE     H10Y     HAL2     0.900000E-01   1.00800           0   0.00000     -0.301140E-02
     21472 MEMB     173      PMPE     C311     CTL2    -0.180000       12.0110           0   0.00000     -0.301140E-02
     21473 MEMB     173      PMPE     H11X     HAL2     0.900000E-01   1.00800           0   0.00000     -0.301140E-02
     21474 MEMB     173      PMPE     H11Y     HAL2     0.900000E-01   1.00800           0   0.00000     -0.301140E-02
     21475 MEMB     173      PMPE     C312     CTL2    -0.180000       12.0110           0   0.00000     -0.301140E-02
     21476 MEMB     173      PMPE     H12X     HAL2     0.900000E-01   1.00800           0   0.00000     -0.301140E-02
     21477 MEMB     173      PMPE     H12Y     HAL2     0.900000E-01   1.00800           0   0.00000     -0.301140E-02
     21478 MEMB     173      PMPE     C313     CTL2    -0.180000       12.0110           0   0.00000     -0.301140E-02
     21479 MEMB     173      PMPE     H13X     HAL2     0.900000E-01   1.00800           0   0.00000     -0.301140E-02
     21480 MEMB     173      PMPE     H13Y     HAL2     0.900000E-01   1.00800           0   0.00000     -0.301140E-02
     21481 MEMB     173      PMPE     C314     CTL2    -0.180000       12.0110           0   0.00000     -0.301140E-02
     21482 MEMB     173      PMPE     H14X     HAL2     0.900000E-01   1.00800           0   0.00000     -0.301140E-02
     21483 MEMB     173      PMPE     H14Y     HAL2     0.900000E-01   1.00800           0   0.00000     -0.301140E-02
     21484 MEMB     173      PMPE     C315     CTL2    -0.180000       12.0110           0   0.00000     -0.301140E-02
     21485 MEMB     173      PMPE     H15X     HAL2     0.900000E-01   1.00800           0   0.00000     -0.301140E-02
     21486 MEMB     173      PMPE     H15Y     HAL2     0.900000E-01   1.00800           0   0.00000     -0.301140E-02
     21487 MEMB     173      PMPE     C316     CTL3    -0.270000       12.0110           0   0.00000     -0.301140E-02
     21488 MEMB     173      PMPE     H16X     HAL3     0.900000E-01   1.00800           0   0.00000     -0.301140E-02
     21489 MEMB     173      PMPE     H16Y     HAL3     0.900000E-01   1.00800           0   0.00000     -0.301140E-02
     21490 MEMB     173      PMPE     H16Z     HAL3     0.900000E-01   1.00800           0   0.00000     -0.301140E-02
     21491 MEMB     174      POPE     N        NH3L    -0.300000       14.0070           0   0.00000     -0.301140E-02
     21492 MEMB     174      POPE     HN1      HCL      0.330000       1.00800           0   0.00000     -0.301140E-02
     21493 MEMB     174      POPE     HN2      HCL      0.330000       1.00800           0   0.00000     -0.301140E-02
     21494 MEMB     174      POPE     HN3      HCL      0.330000       1.00800           0   0.00000     -0.301140E-02
     21495 MEMB     174      POPE     C12      CTL2     0.130000       12.0110           0   0.00000     -0.301140E-02
     21496 MEMB     174      POPE     H12A     HAL2     0.900000E-01   1.00800           0   0.00000     -0.301140E-02
     21497 MEMB     174      POPE     H12B     HAL2     0.900000E-01   1.00800           0   0.00000     -0.301140E-02
     21498 MEMB     174      POPE     C11      CTL2    -0.800000E-01   12.0110           0   0.00000     -0.301140E-02
     21499 MEMB     174      POPE     H11A     HAL2     0.900000E-01   1.00800           0   0.00000     -0.301140E-02
     21500 MEMB     174      POPE     H11B     HAL2     0.900000E-01   1.00800           0   0.00000     -0.301140E-02
     21501 MEMB     174      POPE     P        PL        1.50000       30.9740           0   0.00000     -0.301140E-02
     21502 MEMB     174      POPE     O13      O2L     -0.780000       15.9994           0   0.00000     -0.301140E-02
     21503 MEMB     174      POPE     O14      O2L     -0.780000       15.9994           0   0.00000     -0.301140E-02
     21504 MEMB     174      POPE     O11      OSLP    -0.570000       15.9994           0   0.00000     -0.301140E-02
     21505 MEMB     174      POPE     O12      OSLP    -0.570000       15.9994           0   0.00000     -0.301140E-02
     21506 MEMB     174      POPE     C1       CTL2    -0.800000E-01   12.0110           0   0.00000     -0.301140E-02
     21507 MEMB     174      POPE     HA       HAL2     0.900000E-01   1.00800           0   0.00000     -0.301140E-02
     21508 MEMB     174      POPE     HB       HAL2     0.900000E-01   1.00800           0   0.00000     -0.301140E-02
     21509 MEMB     174      POPE     C2       CTL1     0.170000       12.0110           0   0.00000     -0.301140E-02
     21510 MEMB     174      POPE     HS       HAL1     0.900000E-01   1.00800           0   0.00000     -0.301140E-02
     21511 MEMB     174      POPE     O21      OSL     -0.490000       15.9994           0   0.00000     -0.301140E-02
     21512 MEMB     174      POPE     C21      CL       0.900000       12.0110           0   0.00000     -0.301140E-02
     21513 MEMB     174      POPE     O22      OBL     -0.630000       15.9994           0   0.00000     -0.301140E-02
     21514 MEMB     174      POPE     C22      CTL2    -0.220000       12.0110           0   0.00000     -0.301140E-02
     21515 MEMB     174      POPE     H2R      HAL2     0.900000E-01   1.00800           0   0.00000     -0.301140E-02
     21516 MEMB     174      POPE     H2S      HAL2     0.900000E-01   1.00800           0   0.00000     -0.301140E-02
     21517 MEMB     174      POPE     C3       CTL2     0.800000E-01   12.0110           0   0.00000     -0.301140E-02
     21518 MEMB     174      POPE     HX       HAL2     0.900000E-01   1.00800           0   0.00000     -0.301140E-02
     21519 MEMB     174      POPE     HY       HAL2     0.900000E-01   1.00800           0   0.00000     -0.301140E-02
     21520 MEMB     174      POPE     O31      OSL     -0.490000       15.9994           0   0.00000     -0.301140E-02
     21521 MEMB     174      POPE     C31      CL       0.900000       12.0110           0   0.00000     -0.301140E-02
     21522 MEMB     174      POPE     O32      OBL     -0.630000       15.9994           0   0.00000     -0.301140E-02
     21523 MEMB     174      POPE     C32      CTL2    -0.220000       12.0110           0   0.00000     -0.301140E-02
     21524 MEMB     174      POPE     H2X      HAL2     0.900000E-01   1.00800           0   0.00000     -0.301140E-02
     21525 MEMB     174      POPE     H2Y      HAL2     0.900000E-01   1.00800           0   0.00000     -0.301140E-02
     21526 MEMB     174      POPE     C23      CTL2    -0.180000       12.0110           0   0.00000     -0.301140E-02
     21527 MEMB     174      POPE     H3R      HAL2     0.900000E-01   1.00800           0   0.00000     -0.301140E-02
     21528 MEMB     174      POPE     H3S      HAL2     0.900000E-01   1.00800           0   0.00000     -0.301140E-02
     21529 MEMB     174      POPE     C24      CTL2    -0.180000       12.0110           0   0.00000     -0.301140E-02
     21530 MEMB     174      POPE     H4R      HAL2     0.900000E-01   1.00800           0   0.00000     -0.301140E-02
     21531 MEMB     174      POPE     H4S      HAL2     0.900000E-01   1.00800           0   0.00000     -0.301140E-02
     21532 MEMB     174      POPE     C25      CTL2    -0.180000       12.0110           0   0.00000     -0.301140E-02
     21533 MEMB     174      POPE     H5R      HAL2     0.900000E-01   1.00800           0   0.00000     -0.301140E-02
     21534 MEMB     174      POPE     H5S      HAL2     0.900000E-01   1.00800           0   0.00000     -0.301140E-02
     21535 MEMB     174      POPE     C26      CTL2    -0.180000       12.0110           0   0.00000     -0.301140E-02
     21536 MEMB     174      POPE     H6R      HAL2     0.900000E-01   1.00800           0   0.00000     -0.301140E-02
     21537 MEMB     174      POPE     H6S      HAL2     0.900000E-01   1.00800           0   0.00000     -0.301140E-02
     21538 MEMB     174      POPE     C27      CTL2    -0.180000       12.0110           0   0.00000     -0.301140E-02
     21539 MEMB     174      POPE     H7R      HAL2     0.900000E-01   1.00800           0   0.00000     -0.301140E-02
     21540 MEMB     174      POPE     H7S      HAL2     0.900000E-01   1.00800           0   0.00000     -0.301140E-02
     21541 MEMB     174      POPE     C28      CTL2    -0.180000       12.0110           0   0.00000     -0.301140E-02
     21542 MEMB     174      POPE     H8R      HAL2     0.900000E-01   1.00800           0   0.00000     -0.301140E-02
     21543 MEMB     174      POPE     H8S      HAL2     0.900000E-01   1.00800           0   0.00000     -0.301140E-02
     21544 MEMB     174      POPE     C29      CEL1    -0.150000       12.0110           0   0.00000     -0.301140E-02
     21545 MEMB     174      POPE     H91      HEL1     0.150000       1.00800           0   0.00000     -0.301140E-02
     21546 MEMB     174      POPE     C210     CEL1    -0.150000       12.0110           0   0.00000     -0.301140E-02
     21547 MEMB     174      POPE     H101     HEL1     0.150000       1.00800           0   0.00000     -0.301140E-02
     21548 MEMB     174      POPE     C211     CTL2    -0.180000       12.0110           0   0.00000     -0.301140E-02
     21549 MEMB     174      POPE     H11R     HAL2     0.900000E-01   1.00800           0   0.00000     -0.301140E-02
     21550 MEMB     174      POPE     H11S     HAL2     0.900000E-01   1.00800           0   0.00000     -0.301140E-02
     21551 MEMB     174      POPE     C212     CTL2    -0.180000       12.0110           0   0.00000     -0.301140E-02
     21552 MEMB     174      POPE     H12R     HAL2     0.900000E-01   1.00800           0   0.00000     -0.301140E-02
     21553 MEMB     174      POPE     H12S     HAL2     0.900000E-01   1.00800           0   0.00000     -0.301140E-02
     21554 MEMB     174      POPE     C213     CTL2    -0.180000       12.0110           0   0.00000     -0.301140E-02
     21555 MEMB     174      POPE     H13R     HAL2     0.900000E-01   1.00800           0   0.00000     -0.301140E-02
     21556 MEMB     174      POPE     H13S     HAL2     0.900000E-01   1.00800           0   0.00000     -0.301140E-02
     21557 MEMB     174      POPE     C214     CTL2    -0.180000       12.0110           0   0.00000     -0.301140E-02
     21558 MEMB     174      POPE     H14R     HAL2     0.900000E-01   1.00800           0   0.00000     -0.301140E-02
     21559 MEMB     174      POPE     H14S     HAL2     0.900000E-01   1.00800           0   0.00000     -0.301140E-02
     21560 MEMB     174      POPE     C215     CTL2    -0.180000       12.0110           0   0.00000     -0.301140E-02
     21561 MEMB     174      POPE     H15R     HAL2     0.900000E-01   1.00800           0   0.00000     -0.301140E-02
     21562 MEMB     174      POPE     H15S     HAL2     0.900000E-01   1.00800           0   0.00000     -0.301140E-02
     21563 MEMB     174      POPE     C216     CTL2    -0.180000       12.0110           0   0.00000     -0.301140E-02
     21564 MEMB     174      POPE     H16R     HAL2     0.900000E-01   1.00800           0   0.00000     -0.301140E-02
     21565 MEMB     174      POPE     H16S     HAL2     0.900000E-01   1.00800           0   0.00000     -0.301140E-02
     21566 MEMB     174      POPE     C217     CTL2    -0.180000       12.0110           0   0.00000     -0.301140E-02
     21567 MEMB     174      POPE     H17R     HAL2     0.900000E-01   1.00800           0   0.00000     -0.301140E-02
     21568 MEMB     174      POPE     H17S     HAL2     0.900000E-01   1.00800           0   0.00000     -0.301140E-02
     21569 MEMB     174      POPE     C218     CTL3    -0.270000       12.0110           0   0.00000     -0.301140E-02
     21570 MEMB     174      POPE     H18R     HAL3     0.900000E-01   1.00800           0   0.00000     -0.301140E-02
     21571 MEMB     174      POPE     H18S     HAL3     0.900000E-01   1.00800           0   0.00000     -0.301140E-02
     21572 MEMB     174      POPE     H18T     HAL3     0.900000E-01   1.00800           0   0.00000     -0.301140E-02
     21573 MEMB     174      POPE     C33      CTL2    -0.180000       12.0110           0   0.00000     -0.301140E-02
     21574 MEMB     174      POPE     H3X      HAL2     0.900000E-01   1.00800           0   0.00000     -0.301140E-02
     21575 MEMB     174      POPE     H3Y      HAL2     0.900000E-01   1.00800           0   0.00000     -0.301140E-02
     21576 MEMB     174      POPE     C34      CTL2    -0.180000       12.0110           0   0.00000     -0.301140E-02
     21577 MEMB     174      POPE     H4X      HAL2     0.900000E-01   1.00800           0   0.00000     -0.301140E-02
     21578 MEMB     174      POPE     H4Y      HAL2     0.900000E-01   1.00800           0   0.00000     -0.301140E-02
     21579 MEMB     174      POPE     C35      CTL2    -0.180000       12.0110           0   0.00000     -0.301140E-02
     21580 MEMB     174      POPE     H5X      HAL2     0.900000E-01   1.00800           0   0.00000     -0.301140E-02
     21581 MEMB     174      POPE     H5Y      HAL2     0.900000E-01   1.00800           0   0.00000     -0.301140E-02
     21582 MEMB     174      POPE     C36      CTL2    -0.180000       12.0110           0   0.00000     -0.301140E-02
     21583 MEMB     174      POPE     H6X      HAL2     0.900000E-01   1.00800           0   0.00000     -0.301140E-02
     21584 MEMB     174      POPE     H6Y      HAL2     0.900000E-01   1.00800           0   0.00000     -0.301140E-02
     21585 MEMB     174      POPE     C37      CTL2    -0.180000       12.0110           0   0.00000     -0.301140E-02
     21586 MEMB     174      POPE     H7X      HAL2     0.900000E-01   1.00800           0   0.00000     -0.301140E-02
     21587 MEMB     174      POPE     H7Y      HAL2     0.900000E-01   1.00800           0   0.00000     -0.301140E-02
     21588 MEMB     174      POPE     C38      CTL2    -0.180000       12.0110           0   0.00000     -0.301140E-02
     21589 MEMB     174      POPE     H8X      HAL2     0.900000E-01   1.00800           0   0.00000     -0.301140E-02
     21590 MEMB     174      POPE     H8Y      HAL2     0.900000E-01   1.00800           0   0.00000     -0.301140E-02
     21591 MEMB     174      POPE     C39      CTL2    -0.180000       12.0110           0   0.00000     -0.301140E-02
     21592 MEMB     174      POPE     H9X      HAL2     0.900000E-01   1.00800           0   0.00000     -0.301140E-02
     21593 MEMB     174      POPE     H9Y      HAL2     0.900000E-01   1.00800           0   0.00000     -0.301140E-02
     21594 MEMB     174      POPE     C310     CTL2    -0.180000       12.0110           0   0.00000     -0.301140E-02
     21595 MEMB     174      POPE     H10X     HAL2     0.900000E-01   1.00800           0   0.00000     -0.301140E-02
     21596 MEMB     174      POPE     H10Y     HAL2     0.900000E-01   1.00800           0   0.00000     -0.301140E-02
     21597 MEMB     174      POPE     C311     CTL2    -0.180000       12.0110           0   0.00000     -0.301140E-02
     21598 MEMB     174      POPE     H11X     HAL2     0.900000E-01   1.00800           0   0.00000     -0.301140E-02
     21599 MEMB     174      POPE     H11Y     HAL2     0.900000E-01   1.00800           0   0.00000     -0.301140E-02
     21600 MEMB     174      POPE     C312     CTL2    -0.180000       12.0110           0   0.00000     -0.301140E-02
     21601 MEMB     174      POPE     H12X     HAL2     0.900000E-01   1.00800           0   0.00000     -0.301140E-02
     21602 MEMB     174      POPE     H12Y     HAL2     0.900000E-01   1.00800           0   0.00000     -0.301140E-02
     21603 MEMB     174      POPE     C313     CTL2    -0.180000       12.0110           0   0.00000     -0.301140E-02
     21604 MEMB     174      POPE     H13X     HAL2     0.900000E-01   1.00800           0   0.00000     -0.301140E-02
     21605 MEMB     174      POPE     H13Y     HAL2     0.900000E-01   1.00800           0   0.00000     -0.301140E-02
     21606 MEMB     174      POPE     C314     CTL2    -0.180000       12.0110           0   0.00000     -0.301140E-02
     21607 MEMB     174      POPE     H14X     HAL2     0.900000E-01   1.00800           0   0.00000     -0.301140E-02
     21608 MEMB     174      POPE     H14Y     HAL2     0.900000E-01   1.00800           0   0.00000     -0.301140E-02
     21609 MEMB     174      POPE     C315     CTL2    -0.180000       12.0110           0   0.00000     -0.301140E-02
     21610 MEMB     174      POPE     H15X     HAL2     0.900000E-01   1.00800           0   0.00000     -0.301140E-02
     21611 MEMB     174      POPE     H15Y     HAL2     0.900000E-01   1.00800           0   0.00000     -0.301140E-02
     21612 MEMB     174      POPE     C316     CTL3    -0.270000       12.0110           0   0.00000     -0.301140E-02
     21613 MEMB     174      POPE     H16X     HAL3     0.900000E-01   1.00800           0   0.00000     -0.301140E-02
     21614 MEMB     174      POPE     H16Y     HAL3     0.900000E-01   1.00800           0   0.00000     -0.301140E-02
     21615 MEMB     174      POPE     H16Z     HAL3     0.900000E-01   1.00800           0   0.00000     -0.301140E-02
     21616 MEMB     175      POPE     N        NH3L    -0.300000       14.0070           0   0.00000     -0.301140E-02
     21617 MEMB     175      POPE     HN1      HCL      0.330000       1.00800           0   0.00000     -0.301140E-02
     21618 MEMB     175      POPE     HN2      HCL      0.330000       1.00800           0   0.00000     -0.301140E-02
     21619 MEMB     175      POPE     HN3      HCL      0.330000       1.00800           0   0.00000     -0.301140E-02
     21620 MEMB     175      POPE     C12      CTL2     0.130000       12.0110           0   0.00000     -0.301140E-02
     21621 MEMB     175      POPE     H12A     HAL2     0.900000E-01   1.00800           0   0.00000     -0.301140E-02
     21622 MEMB     175      POPE     H12B     HAL2     0.900000E-01   1.00800           0   0.00000     -0.301140E-02
     21623 MEMB     175      POPE     C11      CTL2    -0.800000E-01   12.0110           0   0.00000     -0.301140E-02
     21624 MEMB     175      POPE     H11A     HAL2     0.900000E-01   1.00800           0   0.00000     -0.301140E-02
     21625 MEMB     175      POPE     H11B     HAL2     0.900000E-01   1.00800           0   0.00000     -0.301140E-02
     21626 MEMB     175      POPE     P        PL        1.50000       30.9740           0   0.00000     -0.301140E-02
     21627 MEMB     175      POPE     O13      O2L     -0.780000       15.9994           0   0.00000     -0.301140E-02
     21628 MEMB     175      POPE     O14      O2L     -0.780000       15.9994           0   0.00000     -0.301140E-02
     21629 MEMB     175      POPE     O11      OSLP    -0.570000       15.9994           0   0.00000     -0.301140E-02
     21630 MEMB     175      POPE     O12      OSLP    -0.570000       15.9994           0   0.00000     -0.301140E-02
     21631 MEMB     175      POPE     C1       CTL2    -0.800000E-01   12.0110           0   0.00000     -0.301140E-02
     21632 MEMB     175      POPE     HA       HAL2     0.900000E-01   1.00800           0   0.00000     -0.301140E-02
     21633 MEMB     175      POPE     HB       HAL2     0.900000E-01   1.00800           0   0.00000     -0.301140E-02
     21634 MEMB     175      POPE     C2       CTL1     0.170000       12.0110           0   0.00000     -0.301140E-02
     21635 MEMB     175      POPE     HS       HAL1     0.900000E-01   1.00800           0   0.00000     -0.301140E-02
     21636 MEMB     175      POPE     O21      OSL     -0.490000       15.9994           0   0.00000     -0.301140E-02
     21637 MEMB     175      POPE     C21      CL       0.900000       12.0110           0   0.00000     -0.301140E-02
     21638 MEMB     175      POPE     O22      OBL     -0.630000       15.9994           0   0.00000     -0.301140E-02
     21639 MEMB     175      POPE     C22      CTL2    -0.220000       12.0110           0   0.00000     -0.301140E-02
     21640 MEMB     175      POPE     H2R      HAL2     0.900000E-01   1.00800           0   0.00000     -0.301140E-02
     21641 MEMB     175      POPE     H2S      HAL2     0.900000E-01   1.00800           0   0.00000     -0.301140E-02
     21642 MEMB     175      POPE     C3       CTL2     0.800000E-01   12.0110           0   0.00000     -0.301140E-02
     21643 MEMB     175      POPE     HX       HAL2     0.900000E-01   1.00800           0   0.00000     -0.301140E-02
     21644 MEMB     175      POPE     HY       HAL2     0.900000E-01   1.00800           0   0.00000     -0.301140E-02
     21645 MEMB     175      POPE     O31      OSL     -0.490000       15.9994           0   0.00000     -0.301140E-02
     21646 MEMB     175      POPE     C31      CL       0.900000       12.0110           0   0.00000     -0.301140E-02
     21647 MEMB     175      POPE     O32      OBL     -0.630000       15.9994           0   0.00000     -0.301140E-02
     21648 MEMB     175      POPE     C32      CTL2    -0.220000       12.0110           0   0.00000     -0.301140E-02
     21649 MEMB     175      POPE     H2X      HAL2     0.900000E-01   1.00800           0   0.00000     -0.301140E-02
     21650 MEMB     175      POPE     H2Y      HAL2     0.900000E-01   1.00800           0   0.00000     -0.301140E-02
     21651 MEMB     175      POPE     C23      CTL2    -0.180000       12.0110           0   0.00000     -0.301140E-02
     21652 MEMB     175      POPE     H3R      HAL2     0.900000E-01   1.00800           0   0.00000     -0.301140E-02
     21653 MEMB     175      POPE     H3S      HAL2     0.900000E-01   1.00800           0   0.00000     -0.301140E-02
     21654 MEMB     175      POPE     C24      CTL2    -0.180000       12.0110           0   0.00000     -0.301140E-02
     21655 MEMB     175      POPE     H4R      HAL2     0.900000E-01   1.00800           0   0.00000     -0.301140E-02
     21656 MEMB     175      POPE     H4S      HAL2     0.900000E-01   1.00800           0   0.00000     -0.301140E-02
     21657 MEMB     175      POPE     C25      CTL2    -0.180000       12.0110           0   0.00000     -0.301140E-02
     21658 MEMB     175      POPE     H5R      HAL2     0.900000E-01   1.00800           0   0.00000     -0.301140E-02
     21659 MEMB     175      POPE     H5S      HAL2     0.900000E-01   1.00800           0   0.00000     -0.301140E-02
     21660 MEMB     175      POPE     C26      CTL2    -0.180000       12.0110           0   0.00000     -0.301140E-02
     21661 MEMB     175      POPE     H6R      HAL2     0.900000E-01   1.00800           0   0.00000     -0.301140E-02
     21662 MEMB     175      POPE     H6S      HAL2     0.900000E-01   1.00800           0   0.00000     -0.301140E-02
     21663 MEMB     175      POPE     C27      CTL2    -0.180000       12.0110           0   0.00000     -0.301140E-02
     21664 MEMB     175      POPE     H7R      HAL2     0.900000E-01   1.00800           0   0.00000     -0.301140E-02
     21665 MEMB     175      POPE     H7S      HAL2     0.900000E-01   1.00800           0   0.00000     -0.301140E-02
     21666 MEMB     175      POPE     C28      CTL2    -0.180000       12.0110           0   0.00000     -0.301140E-02
     21667 MEMB     175      POPE     H8R      HAL2     0.900000E-01   1.00800           0   0.00000     -0.301140E-02
     21668 MEMB     175      POPE     H8S      HAL2     0.900000E-01   1.00800           0   0.00000     -0.301140E-02
     21669 MEMB     175      POPE     C29      CEL1    -0.150000       12.0110           0   0.00000     -0.301140E-02
     21670 MEMB     175      POPE     H91      HEL1     0.150000       1.00800           0   0.00000     -0.301140E-02
     21671 MEMB     175      POPE     C210     CEL1    -0.150000       12.0110           0   0.00000     -0.301140E-02
     21672 MEMB     175      POPE     H101     HEL1     0.150000       1.00800           0   0.00000     -0.301140E-02
     21673 MEMB     175      POPE     C211     CTL2    -0.180000       12.0110           0   0.00000     -0.301140E-02
     21674 MEMB     175      POPE     H11R     HAL2     0.900000E-01   1.00800           0   0.00000     -0.301140E-02
     21675 MEMB     175      POPE     H11S     HAL2     0.900000E-01   1.00800           0   0.00000     -0.301140E-02
     21676 MEMB     175      POPE     C212     CTL2    -0.180000       12.0110           0   0.00000     -0.301140E-02
     21677 MEMB     175      POPE     H12R     HAL2     0.900000E-01   1.00800           0   0.00000     -0.301140E-02
     21678 MEMB     175      POPE     H12S     HAL2     0.900000E-01   1.00800           0   0.00000     -0.301140E-02
     21679 MEMB     175      POPE     C213     CTL2    -0.180000       12.0110           0   0.00000     -0.301140E-02
     21680 MEMB     175      POPE     H13R     HAL2     0.900000E-01   1.00800           0   0.00000     -0.301140E-02
     21681 MEMB     175      POPE     H13S     HAL2     0.900000E-01   1.00800           0   0.00000     -0.301140E-02
     21682 MEMB     175      POPE     C214     CTL2    -0.180000       12.0110           0   0.00000     -0.301140E-02
     21683 MEMB     175      POPE     H14R     HAL2     0.900000E-01   1.00800           0   0.00000     -0.301140E-02
     21684 MEMB     175      POPE     H14S     HAL2     0.900000E-01   1.00800           0   0.00000     -0.301140E-02
     21685 MEMB     175      POPE     C215     CTL2    -0.180000       12.0110           0   0.00000     -0.301140E-02
     21686 MEMB     175      POPE     H15R     HAL2     0.900000E-01   1.00800           0   0.00000     -0.301140E-02
     21687 MEMB     175      POPE     H15S     HAL2     0.900000E-01   1.00800           0   0.00000     -0.301140E-02
     21688 MEMB     175      POPE     C216     CTL2    -0.180000       12.0110           0   0.00000     -0.301140E-02
     21689 MEMB     175      POPE     H16R     HAL2     0.900000E-01   1.00800           0   0.00000     -0.301140E-02
     21690 MEMB     175      POPE     H16S     HAL2     0.900000E-01   1.00800           0   0.00000     -0.301140E-02
     21691 MEMB     175      POPE     C217     CTL2    -0.180000       12.0110           0   0.00000     -0.301140E-02
     21692 MEMB     175      POPE     H17R     HAL2     0.900000E-01   1.00800           0   0.00000     -0.301140E-02
     21693 MEMB     175      POPE     H17S     HAL2     0.900000E-01   1.00800           0   0.00000     -0.301140E-02
     21694 MEMB     175      POPE     C218     CTL3    -0.270000       12.0110           0   0.00000     -0.301140E-02
     21695 MEMB     175      POPE     H18R     HAL3     0.900000E-01   1.00800           0   0.00000     -0.301140E-02
     21696 MEMB     175      POPE     H18S     HAL3     0.900000E-01   1.00800           0   0.00000     -0.301140E-02
     21697 MEMB     175      POPE     H18T     HAL3     0.900000E-01   1.00800           0   0.00000     -0.301140E-02
     21698 MEMB     175      POPE     C33      CTL2    -0.180000       12.0110           0   0.00000     -0.301140E-02
     21699 MEMB     175      POPE     H3X      HAL2     0.900000E-01   1.00800           0   0.00000     -0.301140E-02
     21700 MEMB     175      POPE     H3Y      HAL2     0.900000E-01   1.00800           0   0.00000     -0.301140E-02
     21701 MEMB     175      POPE     C34      CTL2    -0.180000       12.0110           0   0.00000     -0.301140E-02
     21702 MEMB     175      POPE     H4X      HAL2     0.900000E-01   1.00800           0   0.00000     -0.301140E-02
     21703 MEMB     175      POPE     H4Y      HAL2     0.900000E-01   1.00800           0   0.00000     -0.301140E-02
     21704 MEMB     175      POPE     C35      CTL2    -0.180000       12.0110           0   0.00000     -0.301140E-02
     21705 MEMB     175      POPE     H5X      HAL2     0.900000E-01   1.00800           0   0.00000     -0.301140E-02
     21706 MEMB     175      POPE     H5Y      HAL2     0.900000E-01   1.00800           0   0.00000     -0.301140E-02
     21707 MEMB     175      POPE     C36      CTL2    -0.180000       12.0110           0   0.00000     -0.301140E-02
     21708 MEMB     175      POPE     H6X      HAL2     0.900000E-01   1.00800           0   0.00000     -0.301140E-02
     21709 MEMB     175      POPE     H6Y      HAL2     0.900000E-01   1.00800           0   0.00000     -0.301140E-02
     21710 MEMB     175      POPE     C37      CTL2    -0.180000       12.0110           0   0.00000     -0.301140E-02
     21711 MEMB     175      POPE     H7X      HAL2     0.900000E-01   1.00800           0   0.00000     -0.301140E-02
     21712 MEMB     175      POPE     H7Y      HAL2     0.900000E-01   1.00800           0   0.00000     -0.301140E-02
     21713 MEMB     175      POPE     C38      CTL2    -0.180000       12.0110           0   0.00000     -0.301140E-02
     21714 MEMB     175      POPE     H8X      HAL2     0.900000E-01   1.00800           0   0.00000     -0.301140E-02
     21715 MEMB     175      POPE     H8Y      HAL2     0.900000E-01   1.00800           0   0.00000     -0.301140E-02
     21716 MEMB     175      POPE     C39      CTL2    -0.180000       12.0110           0   0.00000     -0.301140E-02
     21717 MEMB     175      POPE     H9X      HAL2     0.900000E-01   1.00800           0   0.00000     -0.301140E-02
     21718 MEMB     175      POPE     H9Y      HAL2     0.900000E-01   1.00800           0   0.00000     -0.301140E-02
     21719 MEMB     175      POPE     C310     CTL2    -0.180000       12.0110           0   0.00000     -0.301140E-02
     21720 MEMB     175      POPE     H10X     HAL2     0.900000E-01   1.00800           0   0.00000     -0.301140E-02
     21721 MEMB     175      POPE     H10Y     HAL2     0.900000E-01   1.00800           0   0.00000     -0.301140E-02
     21722 MEMB     175      POPE     C311     CTL2    -0.180000       12.0110           0   0.00000     -0.301140E-02
     21723 MEMB     175      POPE     H11X     HAL2     0.900000E-01   1.00800           0   0.00000     -0.301140E-02
     21724 MEMB     175      POPE     H11Y     HAL2     0.900000E-01   1.00800           0   0.00000     -0.301140E-02
     21725 MEMB     175      POPE     C312     CTL2    -0.180000       12.0110           0   0.00000     -0.301140E-02
     21726 MEMB     175      POPE     H12X     HAL2     0.900000E-01   1.00800           0   0.00000     -0.301140E-02
     21727 MEMB     175      POPE     H12Y     HAL2     0.900000E-01   1.00800           0   0.00000     -0.301140E-02
     21728 MEMB     175      POPE     C313     CTL2    -0.180000       12.0110           0   0.00000     -0.301140E-02
     21729 MEMB     175      POPE     H13X     HAL2     0.900000E-01   1.00800           0   0.00000     -0.301140E-02
     21730 MEMB     175      POPE     H13Y     HAL2     0.900000E-01   1.00800           0   0.00000     -0.301140E-02
     21731 MEMB     175      POPE     C314     CTL2    -0.180000       12.0110           0   0.00000     -0.301140E-02
     21732 MEMB     175      POPE     H14X     HAL2     0.900000E-01   1.00800           0   0.00000     -0.301140E-02
     21733 MEMB     175      POPE     H14Y     HAL2     0.900000E-01   1.00800           0   0.00000     -0.301140E-02
     21734 MEMB     175      POPE     C315     CTL2    -0.180000       12.0110           0   0.00000     -0.301140E-02
     21735 MEMB     175      POPE     H15X     HAL2     0.900000E-01   1.00800           0   0.00000     -0.301140E-02
     21736 MEMB     175      POPE     H15Y     HAL2     0.900000E-01   1.00800           0   0.00000     -0.301140E-02
     21737 MEMB     175      POPE     C316     CTL3    -0.270000       12.0110           0   0.00000     -0.301140E-02
     21738 MEMB     175      POPE     H16X     HAL3     0.900000E-01   1.00800           0   0.00000     -0.301140E-02
     21739 MEMB     175      POPE     H16Y     HAL3     0.900000E-01   1.00800           0   0.00000     -0.301140E-02
     21740 MEMB     175      POPE     H16Z     HAL3     0.900000E-01   1.00800           0   0.00000     -0.301140E-02
     21741 MEMB     176      PMPE     N        NH3L    -0.300000       14.0070           0   0.00000     -0.301140E-02
     21742 MEMB     176      PMPE     HN1      HCL      0.330000       1.00800           0   0.00000     -0.301140E-02
     21743 MEMB     176      PMPE     HN2      HCL      0.330000       1.00800           0   0.00000     -0.301140E-02
     21744 MEMB     176      PMPE     HN3      HCL      0.330000       1.00800           0   0.00000     -0.301140E-02
     21745 MEMB     176      PMPE     C12      CTL2     0.130000       12.0110           0   0.00000     -0.301140E-02
     21746 MEMB     176      PMPE     H12A     HAL2     0.900000E-01   1.00800           0   0.00000     -0.301140E-02
     21747 MEMB     176      PMPE     H12B     HAL2     0.900000E-01   1.00800           0   0.00000     -0.301140E-02
     21748 MEMB     176      PMPE     C11      CTL2    -0.800000E-01   12.0110           0   0.00000     -0.301140E-02
     21749 MEMB     176      PMPE     H11A     HAL2     0.900000E-01   1.00800           0   0.00000     -0.301140E-02
     21750 MEMB     176      PMPE     H11B     HAL2     0.900000E-01   1.00800           0   0.00000     -0.301140E-02
     21751 MEMB     176      PMPE     P        PL        1.50000       30.9740           0   0.00000     -0.301140E-02
     21752 MEMB     176      PMPE     O13      O2L     -0.780000       15.9994           0   0.00000     -0.301140E-02
     21753 MEMB     176      PMPE     O14      O2L     -0.780000       15.9994           0   0.00000     -0.301140E-02
     21754 MEMB     176      PMPE     O11      OSLP    -0.570000       15.9994           0   0.00000     -0.301140E-02
     21755 MEMB     176      PMPE     O12      OSLP    -0.570000       15.9994           0   0.00000     -0.301140E-02
     21756 MEMB     176      PMPE     C1       CTL2    -0.800000E-01   12.0110           0   0.00000     -0.301140E-02
     21757 MEMB     176      PMPE     HA       HAL2     0.900000E-01   1.00800           0   0.00000     -0.301140E-02
     21758 MEMB     176      PMPE     HB       HAL2     0.900000E-01   1.00800           0   0.00000     -0.301140E-02
     21759 MEMB     176      PMPE     C2       CTL1     0.170000       12.0110           0   0.00000     -0.301140E-02
     21760 MEMB     176      PMPE     HS       HAL1     0.900000E-01   1.00800           0   0.00000     -0.301140E-02
     21761 MEMB     176      PMPE     O21      OSL     -0.490000       15.9994           0   0.00000     -0.301140E-02
     21762 MEMB     176      PMPE     C21      CL       0.900000       12.0110           0   0.00000     -0.301140E-02
     21763 MEMB     176      PMPE     O22      OBL     -0.630000       15.9994           0   0.00000     -0.301140E-02
     21764 MEMB     176      PMPE     C22      CTL2    -0.220000       12.0110           0   0.00000     -0.301140E-02
     21765 MEMB     176      PMPE     H2R      HAL2     0.900000E-01   1.00800           0   0.00000     -0.301140E-02
     21766 MEMB     176      PMPE     H2S      HAL2     0.900000E-01   1.00800           0   0.00000     -0.301140E-02
     21767 MEMB     176      PMPE     C3       CTL2     0.800000E-01   12.0110           0   0.00000     -0.301140E-02
     21768 MEMB     176      PMPE     HX       HAL2     0.900000E-01   1.00800           0   0.00000     -0.301140E-02
     21769 MEMB     176      PMPE     HY       HAL2     0.900000E-01   1.00800           0   0.00000     -0.301140E-02
     21770 MEMB     176      PMPE     O31      OSL     -0.490000       15.9994           0   0.00000     -0.301140E-02
     21771 MEMB     176      PMPE     C31      CL       0.900000       12.0110           0   0.00000     -0.301140E-02
     21772 MEMB     176      PMPE     O32      OBL     -0.630000       15.9994           0   0.00000     -0.301140E-02
     21773 MEMB     176      PMPE     C32      CTL2    -0.220000       12.0110           0   0.00000     -0.301140E-02
     21774 MEMB     176      PMPE     H2X      HAL2     0.900000E-01   1.00800           0   0.00000     -0.301140E-02
     21775 MEMB     176      PMPE     H2Y      HAL2     0.900000E-01   1.00800           0   0.00000     -0.301140E-02
     21776 MEMB     176      PMPE     C23      CTL2    -0.180000       12.0110           0   0.00000     -0.301140E-02
     21777 MEMB     176      PMPE     H3R      HAL2     0.900000E-01   1.00800           0   0.00000     -0.301140E-02
     21778 MEMB     176      PMPE     H3S      HAL2     0.900000E-01   1.00800           0   0.00000     -0.301140E-02
     21779 MEMB     176      PMPE     C24      CTL2    -0.180000       12.0110           0   0.00000     -0.301140E-02
     21780 MEMB     176      PMPE     H4R      HAL2     0.900000E-01   1.00800           0   0.00000     -0.301140E-02
     21781 MEMB     176      PMPE     H4S      HAL2     0.900000E-01   1.00800           0   0.00000     -0.301140E-02
     21782 MEMB     176      PMPE     C25      CTL2    -0.180000       12.0110           0   0.00000     -0.301140E-02
     21783 MEMB     176      PMPE     H5R      HAL2     0.900000E-01   1.00800           0   0.00000     -0.301140E-02
     21784 MEMB     176      PMPE     H5S      HAL2     0.900000E-01   1.00800           0   0.00000     -0.301140E-02
     21785 MEMB     176      PMPE     C26      CTL2    -0.180000       12.0110           0   0.00000     -0.301140E-02
     21786 MEMB     176      PMPE     H6R      HAL2     0.900000E-01   1.00800           0   0.00000     -0.301140E-02
     21787 MEMB     176      PMPE     H6S      HAL2     0.900000E-01   1.00800           0   0.00000     -0.301140E-02
     21788 MEMB     176      PMPE     C27      CTL2    -0.180000       12.0110           0   0.00000     -0.301140E-02
     21789 MEMB     176      PMPE     H7R      HAL2     0.900000E-01   1.00800           0   0.00000     -0.301140E-02
     21790 MEMB     176      PMPE     H7S      HAL2     0.900000E-01   1.00800           0   0.00000     -0.301140E-02
     21791 MEMB     176      PMPE     C28      CTL2    -0.180000       12.0110           0   0.00000     -0.301140E-02
     21792 MEMB     176      PMPE     H8R      HAL2     0.900000E-01   1.00800           0   0.00000     -0.301140E-02
     21793 MEMB     176      PMPE     H8S      HAL2     0.900000E-01   1.00800           0   0.00000     -0.301140E-02
     21794 MEMB     176      PMPE     C29      CG3RC1  -0.900000E-01   12.0110           0   0.00000     -0.301140E-02
     21795 MEMB     176      PMPE     H9R      HGA1     0.900000E-01   1.00800           0   0.00000     -0.301140E-02
     21796 MEMB     176      PMPE     C217     CG3C31  -0.180000       12.0110           0   0.00000     -0.301140E-02
     21797 MEMB     176      PMPE     H17R     HGA2     0.900000E-01   1.00800           0   0.00000     -0.301140E-02
     21798 MEMB     176      PMPE     H17S     HGA2     0.900000E-01   1.00800           0   0.00000     -0.301140E-02
     21799 MEMB     176      PMPE     C210     CG3RC1  -0.900000E-01   12.0110           0   0.00000     -0.301140E-02
     21800 MEMB     176      PMPE     H10R     HGA1     0.900000E-01   1.00800           0   0.00000     -0.301140E-02
     21801 MEMB     176      PMPE     C211     CTL2    -0.180000       12.0110           0   0.00000     -0.301140E-02
     21802 MEMB     176      PMPE     H11R     HAL2     0.900000E-01   1.00800           0   0.00000     -0.301140E-02
     21803 MEMB     176      PMPE     H11S     HAL2     0.900000E-01   1.00800           0   0.00000     -0.301140E-02
     21804 MEMB     176      PMPE     C212     CTL2    -0.180000       12.0110           0   0.00000     -0.301140E-02
     21805 MEMB     176      PMPE     H12R     HAL2     0.900000E-01   1.00800           0   0.00000     -0.301140E-02
     21806 MEMB     176      PMPE     H12S     HAL2     0.900000E-01   1.00800           0   0.00000     -0.301140E-02
     21807 MEMB     176      PMPE     C213     CTL2    -0.180000       12.0110           0   0.00000     -0.301140E-02
     21808 MEMB     176      PMPE     H13R     HAL2     0.900000E-01   1.00800           0   0.00000     -0.301140E-02
     21809 MEMB     176      PMPE     H13S     HAL2     0.900000E-01   1.00800           0   0.00000     -0.301140E-02
     21810 MEMB     176      PMPE     C214     CTL2    -0.180000       12.0110           0   0.00000     -0.301140E-02
     21811 MEMB     176      PMPE     H14R     HAL2     0.900000E-01   1.00800           0   0.00000     -0.301140E-02
     21812 MEMB     176      PMPE     H14S     HAL2     0.900000E-01   1.00800           0   0.00000     -0.301140E-02
     21813 MEMB     176      PMPE     C215     CTL2    -0.180000       12.0110           0   0.00000     -0.301140E-02
     21814 MEMB     176      PMPE     H15R     HAL2     0.900000E-01   1.00800           0   0.00000     -0.301140E-02
     21815 MEMB     176      PMPE     H15S     HAL2     0.900000E-01   1.00800           0   0.00000     -0.301140E-02
     21816 MEMB     176      PMPE     C216     CTL3    -0.270000       12.0110           0   0.00000     -0.301140E-02
     21817 MEMB     176      PMPE     H16R     HAL3     0.900000E-01   1.00800           0   0.00000     -0.301140E-02
     21818 MEMB     176      PMPE     H16S     HAL3     0.900000E-01   1.00800           0   0.00000     -0.301140E-02
     21819 MEMB     176      PMPE     H16T     HAL3     0.900000E-01   1.00800           0   0.00000     -0.301140E-02
     21820 MEMB     176      PMPE     C33      CTL2    -0.180000       12.0110           0   0.00000     -0.301140E-02
     21821 MEMB     176      PMPE     H3X      HAL2     0.900000E-01   1.00800           0   0.00000     -0.301140E-02
     21822 MEMB     176      PMPE     H3Y      HAL2     0.900000E-01   1.00800           0   0.00000     -0.301140E-02
     21823 MEMB     176      PMPE     C34      CTL2    -0.180000       12.0110           0   0.00000     -0.301140E-02
     21824 MEMB     176      PMPE     H4X      HAL2     0.900000E-01   1.00800           0   0.00000     -0.301140E-02
     21825 MEMB     176      PMPE     H4Y      HAL2     0.900000E-01   1.00800           0   0.00000     -0.301140E-02
     21826 MEMB     176      PMPE     C35      CTL2    -0.180000       12.0110           0   0.00000     -0.301140E-02
     21827 MEMB     176      PMPE     H5X      HAL2     0.900000E-01   1.00800           0   0.00000     -0.301140E-02
     21828 MEMB     176      PMPE     H5Y      HAL2     0.900000E-01   1.00800           0   0.00000     -0.301140E-02
     21829 MEMB     176      PMPE     C36      CTL2    -0.180000       12.0110           0   0.00000     -0.301140E-02
     21830 MEMB     176      PMPE     H6X      HAL2     0.900000E-01   1.00800           0   0.00000     -0.301140E-02
     21831 MEMB     176      PMPE     H6Y      HAL2     0.900000E-01   1.00800           0   0.00000     -0.301140E-02
     21832 MEMB     176      PMPE     C37      CTL2    -0.180000       12.0110           0   0.00000     -0.301140E-02
     21833 MEMB     176      PMPE     H7X      HAL2     0.900000E-01   1.00800           0   0.00000     -0.301140E-02
     21834 MEMB     176      PMPE     H7Y      HAL2     0.900000E-01   1.00800           0   0.00000     -0.301140E-02
     21835 MEMB     176      PMPE     C38      CTL2    -0.180000       12.0110           0   0.00000     -0.301140E-02
     21836 MEMB     176      PMPE     H8X      HAL2     0.900000E-01   1.00800           0   0.00000     -0.301140E-02
     21837 MEMB     176      PMPE     H8Y      HAL2     0.900000E-01   1.00800           0   0.00000     -0.301140E-02
     21838 MEMB     176      PMPE     C39      CTL2    -0.180000       12.0110           0   0.00000     -0.301140E-02
     21839 MEMB     176      PMPE     H9X      HAL2     0.900000E-01   1.00800           0   0.00000     -0.301140E-02
     21840 MEMB     176      PMPE     H9Y      HAL2     0.900000E-01   1.00800           0   0.00000     -0.301140E-02
     21841 MEMB     176      PMPE     C310     CTL2    -0.180000       12.0110           0   0.00000     -0.301140E-02
     21842 MEMB     176      PMPE     H10X     HAL2     0.900000E-01   1.00800           0   0.00000     -0.301140E-02
     21843 MEMB     176      PMPE     H10Y     HAL2     0.900000E-01   1.00800           0   0.00000     -0.301140E-02
     21844 MEMB     176      PMPE     C311     CTL2    -0.180000       12.0110           0   0.00000     -0.301140E-02
     21845 MEMB     176      PMPE     H11X     HAL2     0.900000E-01   1.00800           0   0.00000     -0.301140E-02
     21846 MEMB     176      PMPE     H11Y     HAL2     0.900000E-01   1.00800           0   0.00000     -0.301140E-02
     21847 MEMB     176      PMPE     C312     CTL2    -0.180000       12.0110           0   0.00000     -0.301140E-02
     21848 MEMB     176      PMPE     H12X     HAL2     0.900000E-01   1.00800           0   0.00000     -0.301140E-02
     21849 MEMB     176      PMPE     H12Y     HAL2     0.900000E-01   1.00800           0   0.00000     -0.301140E-02
     21850 MEMB     176      PMPE     C313     CTL2    -0.180000       12.0110           0   0.00000     -0.301140E-02
     21851 MEMB     176      PMPE     H13X     HAL2     0.900000E-01   1.00800           0   0.00000     -0.301140E-02
     21852 MEMB     176      PMPE     H13Y     HAL2     0.900000E-01   1.00800           0   0.00000     -0.301140E-02
     21853 MEMB     176      PMPE     C314     CTL2    -0.180000       12.0110           0   0.00000     -0.301140E-02
     21854 MEMB     176      PMPE     H14X     HAL2     0.900000E-01   1.00800           0   0.00000     -0.301140E-02
     21855 MEMB     176      PMPE     H14Y     HAL2     0.900000E-01   1.00800           0   0.00000     -0.301140E-02
     21856 MEMB     176      PMPE     C315     CTL2    -0.180000       12.0110           0   0.00000     -0.301140E-02
     21857 MEMB     176      PMPE     H15X     HAL2     0.900000E-01   1.00800           0   0.00000     -0.301140E-02
     21858 MEMB     176      PMPE     H15Y     HAL2     0.900000E-01   1.00800           0   0.00000     -0.301140E-02
     21859 MEMB     176      PMPE     C316     CTL3    -0.270000       12.0110           0   0.00000     -0.301140E-02
     21860 MEMB     176      PMPE     H16X     HAL3     0.900000E-01   1.00800           0   0.00000     -0.301140E-02
     21861 MEMB     176      PMPE     H16Y     HAL3     0.900000E-01   1.00800           0   0.00000     -0.301140E-02
     21862 MEMB     176      PMPE     H16Z     HAL3     0.900000E-01   1.00800           0   0.00000     -0.301140E-02
     21863 MEMB     177      OYPE     N        NH3L    -0.300000       14.0070           0   0.00000     -0.301140E-02
     21864 MEMB     177      OYPE     HN1      HCL      0.330000       1.00800           0   0.00000     -0.301140E-02
     21865 MEMB     177      OYPE     HN2      HCL      0.330000       1.00800           0   0.00000     -0.301140E-02
     21866 MEMB     177      OYPE     HN3      HCL      0.330000       1.00800           0   0.00000     -0.301140E-02
     21867 MEMB     177      OYPE     C12      CTL2     0.130000       12.0110           0   0.00000     -0.301140E-02
     21868 MEMB     177      OYPE     H12A     HAL2     0.900000E-01   1.00800           0   0.00000     -0.301140E-02
     21869 MEMB     177      OYPE     H12B     HAL2     0.900000E-01   1.00800           0   0.00000     -0.301140E-02
     21870 MEMB     177      OYPE     C11      CTL2    -0.800000E-01   12.0110           0   0.00000     -0.301140E-02
     21871 MEMB     177      OYPE     H11A     HAL2     0.900000E-01   1.00800           0   0.00000     -0.301140E-02
     21872 MEMB     177      OYPE     H11B     HAL2     0.900000E-01   1.00800           0   0.00000     -0.301140E-02
     21873 MEMB     177      OYPE     P        PL        1.50000       30.9740           0   0.00000     -0.301140E-02
     21874 MEMB     177      OYPE     O13      O2L     -0.780000       15.9994           0   0.00000     -0.301140E-02
     21875 MEMB     177      OYPE     O14      O2L     -0.780000       15.9994           0   0.00000     -0.301140E-02
     21876 MEMB     177      OYPE     O11      OSLP    -0.570000       15.9994           0   0.00000     -0.301140E-02
     21877 MEMB     177      OYPE     O12      OSLP    -0.570000       15.9994           0   0.00000     -0.301140E-02
     21878 MEMB     177      OYPE     C1       CTL2    -0.800000E-01   12.0110           0   0.00000     -0.301140E-02
     21879 MEMB     177      OYPE     HA       HAL2     0.900000E-01   1.00800           0   0.00000     -0.301140E-02
     21880 MEMB     177      OYPE     HB       HAL2     0.900000E-01   1.00800           0   0.00000     -0.301140E-02
     21881 MEMB     177      OYPE     C2       CTL1     0.170000       12.0110           0   0.00000     -0.301140E-02
     21882 MEMB     177      OYPE     HS       HAL1     0.900000E-01   1.00800           0   0.00000     -0.301140E-02
     21883 MEMB     177      OYPE     O21      OSL     -0.490000       15.9994           0   0.00000     -0.301140E-02
     21884 MEMB     177      OYPE     C21      CL       0.900000       12.0110           0   0.00000     -0.301140E-02
     21885 MEMB     177      OYPE     O22      OBL     -0.630000       15.9994           0   0.00000     -0.301140E-02
     21886 MEMB     177      OYPE     C22      CTL2    -0.220000       12.0110           0   0.00000     -0.301140E-02
     21887 MEMB     177      OYPE     H2R      HAL2     0.900000E-01   1.00800           0   0.00000     -0.301140E-02
     21888 MEMB     177      OYPE     H2S      HAL2     0.900000E-01   1.00800           0   0.00000     -0.301140E-02
     21889 MEMB     177      OYPE     C3       CTL2     0.800000E-01   12.0110           0   0.00000     -0.301140E-02
     21890 MEMB     177      OYPE     HX       HAL2     0.900000E-01   1.00800           0   0.00000     -0.301140E-02
     21891 MEMB     177      OYPE     HY       HAL2     0.900000E-01   1.00800           0   0.00000     -0.301140E-02
     21892 MEMB     177      OYPE     O31      OSL     -0.490000       15.9994           0   0.00000     -0.301140E-02
     21893 MEMB     177      OYPE     C31      CL       0.900000       12.0110           0   0.00000     -0.301140E-02
     21894 MEMB     177      OYPE     O32      OBL     -0.630000       15.9994           0   0.00000     -0.301140E-02
     21895 MEMB     177      OYPE     C32      CTL2    -0.220000       12.0110           0   0.00000     -0.301140E-02
     21896 MEMB     177      OYPE     H2X      HAL2     0.900000E-01   1.00800           0   0.00000     -0.301140E-02
     21897 MEMB     177      OYPE     H2Y      HAL2     0.900000E-01   1.00800           0   0.00000     -0.301140E-02
     21898 MEMB     177      OYPE     C23      CTL2    -0.180000       12.0110           0   0.00000     -0.301140E-02
     21899 MEMB     177      OYPE     H3R      HAL2     0.900000E-01   1.00800           0   0.00000     -0.301140E-02
     21900 MEMB     177      OYPE     H3S      HAL2     0.900000E-01   1.00800           0   0.00000     -0.301140E-02
     21901 MEMB     177      OYPE     C24      CTL2    -0.180000       12.0110           0   0.00000     -0.301140E-02
     21902 MEMB     177      OYPE     H4R      HAL2     0.900000E-01   1.00800           0   0.00000     -0.301140E-02
     21903 MEMB     177      OYPE     H4S      HAL2     0.900000E-01   1.00800           0   0.00000     -0.301140E-02
     21904 MEMB     177      OYPE     C25      CTL2    -0.180000       12.0110           0   0.00000     -0.301140E-02
     21905 MEMB     177      OYPE     H5R      HAL2     0.900000E-01   1.00800           0   0.00000     -0.301140E-02
     21906 MEMB     177      OYPE     H5S      HAL2     0.900000E-01   1.00800           0   0.00000     -0.301140E-02
     21907 MEMB     177      OYPE     C26      CTL2    -0.180000       12.0110           0   0.00000     -0.301140E-02
     21908 MEMB     177      OYPE     H6R      HAL2     0.900000E-01   1.00800           0   0.00000     -0.301140E-02
     21909 MEMB     177      OYPE     H6S      HAL2     0.900000E-01   1.00800           0   0.00000     -0.301140E-02
     21910 MEMB     177      OYPE     C27      CTL2    -0.180000       12.0110           0   0.00000     -0.301140E-02
     21911 MEMB     177      OYPE     H7R      HAL2     0.900000E-01   1.00800           0   0.00000     -0.301140E-02
     21912 MEMB     177      OYPE     H7S      HAL2     0.900000E-01   1.00800           0   0.00000     -0.301140E-02
     21913 MEMB     177      OYPE     C28      CTL2    -0.180000       12.0110           0   0.00000     -0.301140E-02
     21914 MEMB     177      OYPE     H8R      HAL2     0.900000E-01   1.00800           0   0.00000     -0.301140E-02
     21915 MEMB     177      OYPE     H8S      HAL2     0.900000E-01   1.00800           0   0.00000     -0.301140E-02
     21916 MEMB     177      OYPE     C29      CEL1    -0.150000       12.0110           0   0.00000     -0.301140E-02
     21917 MEMB     177      OYPE     H9R      HEL1     0.150000       1.00800           0   0.00000     -0.301140E-02
     21918 MEMB     177      OYPE     C210     CEL1    -0.150000       12.0110           0   0.00000     -0.301140E-02
     21919 MEMB     177      OYPE     H10R     HEL1     0.150000       1.00800           0   0.00000     -0.301140E-02
     21920 MEMB     177      OYPE     C211     CTL2    -0.180000       12.0110           0   0.00000     -0.301140E-02
     21921 MEMB     177      OYPE     H11R     HAL2     0.900000E-01   1.00800           0   0.00000     -0.301140E-02
     21922 MEMB     177      OYPE     H11S     HAL2     0.900000E-01   1.00800           0   0.00000     -0.301140E-02
     21923 MEMB     177      OYPE     C212     CTL2    -0.180000       12.0110           0   0.00000     -0.301140E-02
     21924 MEMB     177      OYPE     H12R     HAL2     0.900000E-01   1.00800           0   0.00000     -0.301140E-02
     21925 MEMB     177      OYPE     H12S     HAL2     0.900000E-01   1.00800           0   0.00000     -0.301140E-02
     21926 MEMB     177      OYPE     C213     CTL2    -0.180000       12.0110           0   0.00000     -0.301140E-02
     21927 MEMB     177      OYPE     H13R     HAL2     0.900000E-01   1.00800           0   0.00000     -0.301140E-02
     21928 MEMB     177      OYPE     H13S     HAL2     0.900000E-01   1.00800           0   0.00000     -0.301140E-02
     21929 MEMB     177      OYPE     C214     CTL2    -0.180000       12.0110           0   0.00000     -0.301140E-02
     21930 MEMB     177      OYPE     H14R     HAL2     0.900000E-01   1.00800           0   0.00000     -0.301140E-02
     21931 MEMB     177      OYPE     H14S     HAL2     0.900000E-01   1.00800           0   0.00000     -0.301140E-02
     21932 MEMB     177      OYPE     C215     CTL2    -0.180000       12.0110           0   0.00000     -0.301140E-02
     21933 MEMB     177      OYPE     H15R     HAL2     0.900000E-01   1.00800           0   0.00000     -0.301140E-02
     21934 MEMB     177      OYPE     H15S     HAL2     0.900000E-01   1.00800           0   0.00000     -0.301140E-02
     21935 MEMB     177      OYPE     C216     CTL3    -0.270000       12.0110           0   0.00000     -0.301140E-02
     21936 MEMB     177      OYPE     H16R     HAL3     0.900000E-01   1.00800           0   0.00000     -0.301140E-02
     21937 MEMB     177      OYPE     H16S     HAL3     0.900000E-01   1.00800           0   0.00000     -0.301140E-02
     21938 MEMB     177      OYPE     H16T     HAL3     0.900000E-01   1.00800           0   0.00000     -0.301140E-02
     21939 MEMB     177      OYPE     C33      CTL2    -0.180000       12.0110           0   0.00000     -0.301140E-02
     21940 MEMB     177      OYPE     H3X      HAL2     0.900000E-01   1.00800           0   0.00000     -0.301140E-02
     21941 MEMB     177      OYPE     H3Y      HAL2     0.900000E-01   1.00800           0   0.00000     -0.301140E-02
     21942 MEMB     177      OYPE     C34      CTL2    -0.180000       12.0110           0   0.00000     -0.301140E-02
     21943 MEMB     177      OYPE     H4X      HAL2     0.900000E-01   1.00800           0   0.00000     -0.301140E-02
     21944 MEMB     177      OYPE     H4Y      HAL2     0.900000E-01   1.00800           0   0.00000     -0.301140E-02
     21945 MEMB     177      OYPE     C35      CTL2    -0.180000       12.0110           0   0.00000     -0.301140E-02
     21946 MEMB     177      OYPE     H5X      HAL2     0.900000E-01   1.00800           0   0.00000     -0.301140E-02
     21947 MEMB     177      OYPE     H5Y      HAL2     0.900000E-01   1.00800           0   0.00000     -0.301140E-02
     21948 MEMB     177      OYPE     C36      CTL2    -0.180000       12.0110           0   0.00000     -0.301140E-02
     21949 MEMB     177      OYPE     H6X      HAL2     0.900000E-01   1.00800           0   0.00000     -0.301140E-02
     21950 MEMB     177      OYPE     H6Y      HAL2     0.900000E-01   1.00800           0   0.00000     -0.301140E-02
     21951 MEMB     177      OYPE     C37      CTL2    -0.180000       12.0110           0   0.00000     -0.301140E-02
     21952 MEMB     177      OYPE     H7X      HAL2     0.900000E-01   1.00800           0   0.00000     -0.301140E-02
     21953 MEMB     177      OYPE     H7Y      HAL2     0.900000E-01   1.00800           0   0.00000     -0.301140E-02
     21954 MEMB     177      OYPE     C38      CTL2    -0.180000       12.0110           0   0.00000     -0.301140E-02
     21955 MEMB     177      OYPE     H8X      HAL2     0.900000E-01   1.00800           0   0.00000     -0.301140E-02
     21956 MEMB     177      OYPE     H8Y      HAL2     0.900000E-01   1.00800           0   0.00000     -0.301140E-02
     21957 MEMB     177      OYPE     C39      CEL1    -0.150000       12.0110           0   0.00000     -0.301140E-02
     21958 MEMB     177      OYPE     H9X      HEL1     0.150000       1.00800           0   0.00000     -0.301140E-02
     21959 MEMB     177      OYPE     C310     CEL1    -0.150000       12.0110           0   0.00000     -0.301140E-02
     21960 MEMB     177      OYPE     H10X     HEL1     0.150000       1.00800           0   0.00000     -0.301140E-02
     21961 MEMB     177      OYPE     C311     CTL2    -0.180000       12.0110           0   0.00000     -0.301140E-02
     21962 MEMB     177      OYPE     H11X     HAL2     0.900000E-01   1.00800           0   0.00000     -0.301140E-02
     21963 MEMB     177      OYPE     H11Y     HAL2     0.900000E-01   1.00800           0   0.00000     -0.301140E-02
     21964 MEMB     177      OYPE     C312     CTL2    -0.180000       12.0110           0   0.00000     -0.301140E-02
     21965 MEMB     177      OYPE     H12X     HAL2     0.900000E-01   1.00800           0   0.00000     -0.301140E-02
     21966 MEMB     177      OYPE     H12Y     HAL2     0.900000E-01   1.00800           0   0.00000     -0.301140E-02
     21967 MEMB     177      OYPE     C313     CTL2    -0.180000       12.0110           0   0.00000     -0.301140E-02
     21968 MEMB     177      OYPE     H13X     HAL2     0.900000E-01   1.00800           0   0.00000     -0.301140E-02
     21969 MEMB     177      OYPE     H13Y     HAL2     0.900000E-01   1.00800           0   0.00000     -0.301140E-02
     21970 MEMB     177      OYPE     C314     CTL2    -0.180000       12.0110           0   0.00000     -0.301140E-02
     21971 MEMB     177      OYPE     H14X     HAL2     0.900000E-01   1.00800           0   0.00000     -0.301140E-02
     21972 MEMB     177      OYPE     H14Y     HAL2     0.900000E-01   1.00800           0   0.00000     -0.301140E-02
     21973 MEMB     177      OYPE     C315     CTL2    -0.180000       12.0110           0   0.00000     -0.301140E-02
     21974 MEMB     177      OYPE     H15X     HAL2     0.900000E-01   1.00800           0   0.00000     -0.301140E-02
     21975 MEMB     177      OYPE     H15Y     HAL2     0.900000E-01   1.00800           0   0.00000     -0.301140E-02
     21976 MEMB     177      OYPE     C316     CTL2    -0.180000       12.0110           0   0.00000     -0.301140E-02
     21977 MEMB     177      OYPE     H16X     HAL2     0.900000E-01   1.00800           0   0.00000     -0.301140E-02
     21978 MEMB     177      OYPE     H16Y     HAL2     0.900000E-01   1.00800           0   0.00000     -0.301140E-02
     21979 MEMB     177      OYPE     C317     CTL2    -0.180000       12.0110           0   0.00000     -0.301140E-02
     21980 MEMB     177      OYPE     H17X     HAL2     0.900000E-01   1.00800           0   0.00000     -0.301140E-02
     21981 MEMB     177      OYPE     H17Y     HAL2     0.900000E-01   1.00800           0   0.00000     -0.301140E-02
     21982 MEMB     177      OYPE     C318     CTL3    -0.270000       12.0110           0   0.00000     -0.301140E-02
     21983 MEMB     177      OYPE     H18X     HAL3     0.900000E-01   1.00800           0   0.00000     -0.301140E-02
     21984 MEMB     177      OYPE     H18Y     HAL3     0.900000E-01   1.00800           0   0.00000     -0.301140E-02
     21985 MEMB     177      OYPE     H18Z     HAL3     0.900000E-01   1.00800           0   0.00000     -0.301140E-02
     21986 MEMB     178      PMPG     C13      CTL2     0.500000E-01   12.0110           0   0.00000     -0.301140E-02
     21987 MEMB     178      PMPG     H13A     HAL2     0.900000E-01   1.00800           0   0.00000     -0.301140E-02
     21988 MEMB     178      PMPG     H13B     HAL2     0.900000E-01   1.00800           0   0.00000     -0.301140E-02
     21989 MEMB     178      PMPG     OC3      OHL     -0.660000       15.9994           0   0.00000     -0.301140E-02
     21990 MEMB     178      PMPG     HO3      HOL      0.430000       1.00800           0   0.00000     -0.301140E-02
     21991 MEMB     178      PMPG     C12      CTL1     0.140000       12.0110           0   0.00000     -0.301140E-02
     21992 MEMB     178      PMPG     H12A     HAL1     0.900000E-01   1.00800           0   0.00000     -0.301140E-02
     21993 MEMB     178      PMPG     OC2      OHL     -0.660000       15.9994           0   0.00000     -0.301140E-02
     21994 MEMB     178      PMPG     HO2      HOL      0.430000       1.00800           0   0.00000     -0.301140E-02
     21995 MEMB     178      PMPG     C11      CTL2    -0.800000E-01   12.0110           0   0.00000     -0.301140E-02
     21996 MEMB     178      PMPG     H11A     HAL2     0.900000E-01   1.00800           0   0.00000     -0.301140E-02
     21997 MEMB     178      PMPG     H11B     HAL2     0.900000E-01   1.00800           0   0.00000     -0.301140E-02
     21998 MEMB     178      PMPG     P        PL        1.50000       30.9740           0   0.00000     -0.301140E-02
     21999 MEMB     178      PMPG     O13      O2L     -0.780000       15.9994           0   0.00000     -0.301140E-02
     22000 MEMB     178      PMPG     O14      O2L     -0.780000       15.9994           0   0.00000     -0.301140E-02
     22001 MEMB     178      PMPG     O11      OSLP    -0.570000       15.9994           0   0.00000     -0.301140E-02
     22002 MEMB     178      PMPG     O12      OSLP    -0.570000       15.9994           0   0.00000     -0.301140E-02
     22003 MEMB     178      PMPG     C1       CTL2    -0.800000E-01   12.0110           0   0.00000     -0.301140E-02
     22004 MEMB     178      PMPG     HA       HAL2     0.900000E-01   1.00800           0   0.00000     -0.301140E-02
     22005 MEMB     178      PMPG     HB       HAL2     0.900000E-01   1.00800           0   0.00000     -0.301140E-02
     22006 MEMB     178      PMPG     C2       CTL1     0.170000       12.0110           0   0.00000     -0.301140E-02
     22007 MEMB     178      PMPG     HS       HAL1     0.900000E-01   1.00800           0   0.00000     -0.301140E-02
     22008 MEMB     178      PMPG     O21      OSL     -0.490000       15.9994           0   0.00000     -0.301140E-02
     22009 MEMB     178      PMPG     C21      CL       0.900000       12.0110           0   0.00000     -0.301140E-02
     22010 MEMB     178      PMPG     O22      OBL     -0.630000       15.9994           0   0.00000     -0.301140E-02
     22011 MEMB     178      PMPG     C22      CTL2    -0.220000       12.0110           0   0.00000     -0.301140E-02
     22012 MEMB     178      PMPG     H2R      HAL2     0.900000E-01   1.00800           0   0.00000     -0.301140E-02
     22013 MEMB     178      PMPG     H2S      HAL2     0.900000E-01   1.00800           0   0.00000     -0.301140E-02
     22014 MEMB     178      PMPG     C3       CTL2     0.800000E-01   12.0110           0   0.00000     -0.301140E-02
     22015 MEMB     178      PMPG     HX       HAL2     0.900000E-01   1.00800           0   0.00000     -0.301140E-02
     22016 MEMB     178      PMPG     HY       HAL2     0.900000E-01   1.00800           0   0.00000     -0.301140E-02
     22017 MEMB     178      PMPG     O31      OSL     -0.490000       15.9994           0   0.00000     -0.301140E-02
     22018 MEMB     178      PMPG     C31      CL       0.900000       12.0110           0   0.00000     -0.301140E-02
     22019 MEMB     178      PMPG     O32      OBL     -0.630000       15.9994           0   0.00000     -0.301140E-02
     22020 MEMB     178      PMPG     C32      CTL2    -0.220000       12.0110           0   0.00000     -0.301140E-02
     22021 MEMB     178      PMPG     H2X      HAL2     0.900000E-01   1.00800           0   0.00000     -0.301140E-02
     22022 MEMB     178      PMPG     H2Y      HAL2     0.900000E-01   1.00800           0   0.00000     -0.301140E-02
     22023 MEMB     178      PMPG     C23      CTL2    -0.180000       12.0110           0   0.00000     -0.301140E-02
     22024 MEMB     178      PMPG     H3R      HAL2     0.900000E-01   1.00800           0   0.00000     -0.301140E-02
     22025 MEMB     178      PMPG     H3S      HAL2     0.900000E-01   1.00800           0   0.00000     -0.301140E-02
     22026 MEMB     178      PMPG     C24      CTL2    -0.180000       12.0110           0   0.00000     -0.301140E-02
     22027 MEMB     178      PMPG     H4R      HAL2     0.900000E-01   1.00800           0   0.00000     -0.301140E-02
     22028 MEMB     178      PMPG     H4S      HAL2     0.900000E-01   1.00800           0   0.00000     -0.301140E-02
     22029 MEMB     178      PMPG     C25      CTL2    -0.180000       12.0110           0   0.00000     -0.301140E-02
     22030 MEMB     178      PMPG     H5R      HAL2     0.900000E-01   1.00800           0   0.00000     -0.301140E-02
     22031 MEMB     178      PMPG     H5S      HAL2     0.900000E-01   1.00800           0   0.00000     -0.301140E-02
     22032 MEMB     178      PMPG     C26      CTL2    -0.180000       12.0110           0   0.00000     -0.301140E-02
     22033 MEMB     178      PMPG     H6R      HAL2     0.900000E-01   1.00800           0   0.00000     -0.301140E-02
     22034 MEMB     178      PMPG     H6S      HAL2     0.900000E-01   1.00800           0   0.00000     -0.301140E-02
     22035 MEMB     178      PMPG     C27      CTL2    -0.180000       12.0110           0   0.00000     -0.301140E-02
     22036 MEMB     178      PMPG     H7R      HAL2     0.900000E-01   1.00800           0   0.00000     -0.301140E-02
     22037 MEMB     178      PMPG     H7S      HAL2     0.900000E-01   1.00800           0   0.00000     -0.301140E-02
     22038 MEMB     178      PMPG     C28      CTL2    -0.180000       12.0110           0   0.00000     -0.301140E-02
     22039 MEMB     178      PMPG     H8R      HAL2     0.900000E-01   1.00800           0   0.00000     -0.301140E-02
     22040 MEMB     178      PMPG     H8S      HAL2     0.900000E-01   1.00800           0   0.00000     -0.301140E-02
     22041 MEMB     178      PMPG     C29      CG3RC1  -0.900000E-01   12.0110           0   0.00000     -0.301140E-02
     22042 MEMB     178      PMPG     H9R      HGA1     0.900000E-01   1.00800           0   0.00000     -0.301140E-02
     22043 MEMB     178      PMPG     C217     CG3C31  -0.180000       12.0110           0   0.00000     -0.301140E-02
     22044 MEMB     178      PMPG     H17R     HGA2     0.900000E-01   1.00800           0   0.00000     -0.301140E-02
     22045 MEMB     178      PMPG     H17S     HGA2     0.900000E-01   1.00800           0   0.00000     -0.301140E-02
     22046 MEMB     178      PMPG     C210     CG3RC1  -0.900000E-01   12.0110           0   0.00000     -0.301140E-02
     22047 MEMB     178      PMPG     H10R     HGA1     0.900000E-01   1.00800           0   0.00000     -0.301140E-02
     22048 MEMB     178      PMPG     C211     CTL2    -0.180000       12.0110           0   0.00000     -0.301140E-02
     22049 MEMB     178      PMPG     H11R     HAL2     0.900000E-01   1.00800           0   0.00000     -0.301140E-02
     22050 MEMB     178      PMPG     H11S     HAL2     0.900000E-01   1.00800           0   0.00000     -0.301140E-02
     22051 MEMB     178      PMPG     C212     CTL2    -0.180000       12.0110           0   0.00000     -0.301140E-02
     22052 MEMB     178      PMPG     H12R     HAL2     0.900000E-01   1.00800           0   0.00000     -0.301140E-02
     22053 MEMB     178      PMPG     H12S     HAL2     0.900000E-01   1.00800           0   0.00000     -0.301140E-02
     22054 MEMB     178      PMPG     C213     CTL2    -0.180000       12.0110           0   0.00000     -0.301140E-02
     22055 MEMB     178      PMPG     H13R     HAL2     0.900000E-01   1.00800           0   0.00000     -0.301140E-02
     22056 MEMB     178      PMPG     H13S     HAL2     0.900000E-01   1.00800           0   0.00000     -0.301140E-02
     22057 MEMB     178      PMPG     C214     CTL2    -0.180000       12.0110           0   0.00000     -0.301140E-02
     22058 MEMB     178      PMPG     H14R     HAL2     0.900000E-01   1.00800           0   0.00000     -0.301140E-02
     22059 MEMB     178      PMPG     H14S     HAL2     0.900000E-01   1.00800           0   0.00000     -0.301140E-02
     22060 MEMB     178      PMPG     C215     CTL2    -0.180000       12.0110           0   0.00000     -0.301140E-02
     22061 MEMB     178      PMPG     H15R     HAL2     0.900000E-01   1.00800           0   0.00000     -0.301140E-02
     22062 MEMB     178      PMPG     H15S     HAL2     0.900000E-01   1.00800           0   0.00000     -0.301140E-02
     22063 MEMB     178      PMPG     C216     CTL3    -0.270000       12.0110           0   0.00000     -0.301140E-02
     22064 MEMB     178      PMPG     H16R     HAL3     0.900000E-01   1.00800           0   0.00000     -0.301140E-02
     22065 MEMB     178      PMPG     H16S     HAL3     0.900000E-01   1.00800           0   0.00000     -0.301140E-02
     22066 MEMB     178      PMPG     H16T     HAL3     0.900000E-01   1.00800           0   0.00000     -0.301140E-02
     22067 MEMB     178      PMPG     C33      CTL2    -0.180000       12.0110           0   0.00000     -0.301140E-02
     22068 MEMB     178      PMPG     H3X      HAL2     0.900000E-01   1.00800           0   0.00000     -0.301140E-02
     22069 MEMB     178      PMPG     H3Y      HAL2     0.900000E-01   1.00800           0   0.00000     -0.301140E-02
     22070 MEMB     178      PMPG     C34      CTL2    -0.180000       12.0110           0   0.00000     -0.301140E-02
     22071 MEMB     178      PMPG     H4X      HAL2     0.900000E-01   1.00800           0   0.00000     -0.301140E-02
     22072 MEMB     178      PMPG     H4Y      HAL2     0.900000E-01   1.00800           0   0.00000     -0.301140E-02
     22073 MEMB     178      PMPG     C35      CTL2    -0.180000       12.0110           0   0.00000     -0.301140E-02
     22074 MEMB     178      PMPG     H5X      HAL2     0.900000E-01   1.00800           0   0.00000     -0.301140E-02
     22075 MEMB     178      PMPG     H5Y      HAL2     0.900000E-01   1.00800           0   0.00000     -0.301140E-02
     22076 MEMB     178      PMPG     C36      CTL2    -0.180000       12.0110           0   0.00000     -0.301140E-02
     22077 MEMB     178      PMPG     H6X      HAL2     0.900000E-01   1.00800           0   0.00000     -0.301140E-02
     22078 MEMB     178      PMPG     H6Y      HAL2     0.900000E-01   1.00800           0   0.00000     -0.301140E-02
     22079 MEMB     178      PMPG     C37      CTL2    -0.180000       12.0110           0   0.00000     -0.301140E-02
     22080 MEMB     178      PMPG     H7X      HAL2     0.900000E-01   1.00800           0   0.00000     -0.301140E-02
     22081 MEMB     178      PMPG     H7Y      HAL2     0.900000E-01   1.00800           0   0.00000     -0.301140E-02
     22082 MEMB     178      PMPG     C38      CTL2    -0.180000       12.0110           0   0.00000     -0.301140E-02
     22083 MEMB     178      PMPG     H8X      HAL2     0.900000E-01   1.00800           0   0.00000     -0.301140E-02
     22084 MEMB     178      PMPG     H8Y      HAL2     0.900000E-01   1.00800           0   0.00000     -0.301140E-02
     22085 MEMB     178      PMPG     C39      CTL2    -0.180000       12.0110           0   0.00000     -0.301140E-02
     22086 MEMB     178      PMPG     H9X      HAL2     0.900000E-01   1.00800           0   0.00000     -0.301140E-02
     22087 MEMB     178      PMPG     H9Y      HAL2     0.900000E-01   1.00800           0   0.00000     -0.301140E-02
     22088 MEMB     178      PMPG     C310     CTL2    -0.180000       12.0110           0   0.00000     -0.301140E-02
     22089 MEMB     178      PMPG     H10X     HAL2     0.900000E-01   1.00800           0   0.00000     -0.301140E-02
     22090 MEMB     178      PMPG     H10Y     HAL2     0.900000E-01   1.00800           0   0.00000     -0.301140E-02
     22091 MEMB     178      PMPG     C311     CTL2    -0.180000       12.0110           0   0.00000     -0.301140E-02
     22092 MEMB     178      PMPG     H11X     HAL2     0.900000E-01   1.00800           0   0.00000     -0.301140E-02
     22093 MEMB     178      PMPG     H11Y     HAL2     0.900000E-01   1.00800           0   0.00000     -0.301140E-02
     22094 MEMB     178      PMPG     C312     CTL2    -0.180000       12.0110           0   0.00000     -0.301140E-02
     22095 MEMB     178      PMPG     H12X     HAL2     0.900000E-01   1.00800           0   0.00000     -0.301140E-02
     22096 MEMB     178      PMPG     H12Y     HAL2     0.900000E-01   1.00800           0   0.00000     -0.301140E-02
     22097 MEMB     178      PMPG     C313     CTL2    -0.180000       12.0110           0   0.00000     -0.301140E-02
     22098 MEMB     178      PMPG     H13X     HAL2     0.900000E-01   1.00800           0   0.00000     -0.301140E-02
     22099 MEMB     178      PMPG     H13Y     HAL2     0.900000E-01   1.00800           0   0.00000     -0.301140E-02
     22100 MEMB     178      PMPG     C314     CTL2    -0.180000       12.0110           0   0.00000     -0.301140E-02
     22101 MEMB     178      PMPG     H14X     HAL2     0.900000E-01   1.00800           0   0.00000     -0.301140E-02
     22102 MEMB     178      PMPG     H14Y     HAL2     0.900000E-01   1.00800           0   0.00000     -0.301140E-02
     22103 MEMB     178      PMPG     C315     CTL2    -0.180000       12.0110           0   0.00000     -0.301140E-02
     22104 MEMB     178      PMPG     H15X     HAL2     0.900000E-01   1.00800           0   0.00000     -0.301140E-02
     22105 MEMB     178      PMPG     H15Y     HAL2     0.900000E-01   1.00800           0   0.00000     -0.301140E-02
     22106 MEMB     178      PMPG     C316     CTL3    -0.270000       12.0110           0   0.00000     -0.301140E-02
     22107 MEMB     178      PMPG     H16X     HAL3     0.900000E-01   1.00800           0   0.00000     -0.301140E-02
     22108 MEMB     178      PMPG     H16Y     HAL3     0.900000E-01   1.00800           0   0.00000     -0.301140E-02
     22109 MEMB     178      PMPG     H16Z     HAL3     0.900000E-01   1.00800           0   0.00000     -0.301140E-02
     22110 MEMB     179      PMPE     N        NH3L    -0.300000       14.0070           0   0.00000     -0.301140E-02
     22111 MEMB     179      PMPE     HN1      HCL      0.330000       1.00800           0   0.00000     -0.301140E-02
     22112 MEMB     179      PMPE     HN2      HCL      0.330000       1.00800           0   0.00000     -0.301140E-02
     22113 MEMB     179      PMPE     HN3      HCL      0.330000       1.00800           0   0.00000     -0.301140E-02
     22114 MEMB     179      PMPE     C12      CTL2     0.130000       12.0110           0   0.00000     -0.301140E-02
     22115 MEMB     179      PMPE     H12A     HAL2     0.900000E-01   1.00800           0   0.00000     -0.301140E-02
     22116 MEMB     179      PMPE     H12B     HAL2     0.900000E-01   1.00800           0   0.00000     -0.301140E-02
     22117 MEMB     179      PMPE     C11      CTL2    -0.800000E-01   12.0110           0   0.00000     -0.301140E-02
     22118 MEMB     179      PMPE     H11A     HAL2     0.900000E-01   1.00800           0   0.00000     -0.301140E-02
     22119 MEMB     179      PMPE     H11B     HAL2     0.900000E-01   1.00800           0   0.00000     -0.301140E-02
     22120 MEMB     179      PMPE     P        PL        1.50000       30.9740           0   0.00000     -0.301140E-02
     22121 MEMB     179      PMPE     O13      O2L     -0.780000       15.9994           0   0.00000     -0.301140E-02
     22122 MEMB     179      PMPE     O14      O2L     -0.780000       15.9994           0   0.00000     -0.301140E-02
     22123 MEMB     179      PMPE     O11      OSLP    -0.570000       15.9994           0   0.00000     -0.301140E-02
     22124 MEMB     179      PMPE     O12      OSLP    -0.570000       15.9994           0   0.00000     -0.301140E-02
     22125 MEMB     179      PMPE     C1       CTL2    -0.800000E-01   12.0110           0   0.00000     -0.301140E-02
     22126 MEMB     179      PMPE     HA       HAL2     0.900000E-01   1.00800           0   0.00000     -0.301140E-02
     22127 MEMB     179      PMPE     HB       HAL2     0.900000E-01   1.00800           0   0.00000     -0.301140E-02
     22128 MEMB     179      PMPE     C2       CTL1     0.170000       12.0110           0   0.00000     -0.301140E-02
     22129 MEMB     179      PMPE     HS       HAL1     0.900000E-01   1.00800           0   0.00000     -0.301140E-02
     22130 MEMB     179      PMPE     O21      OSL     -0.490000       15.9994           0   0.00000     -0.301140E-02
     22131 MEMB     179      PMPE     C21      CL       0.900000       12.0110           0   0.00000     -0.301140E-02
     22132 MEMB     179      PMPE     O22      OBL     -0.630000       15.9994           0   0.00000     -0.301140E-02
     22133 MEMB     179      PMPE     C22      CTL2    -0.220000       12.0110           0   0.00000     -0.301140E-02
     22134 MEMB     179      PMPE     H2R      HAL2     0.900000E-01   1.00800           0   0.00000     -0.301140E-02
     22135 MEMB     179      PMPE     H2S      HAL2     0.900000E-01   1.00800           0   0.00000     -0.301140E-02
     22136 MEMB     179      PMPE     C3       CTL2     0.800000E-01   12.0110           0   0.00000     -0.301140E-02
     22137 MEMB     179      PMPE     HX       HAL2     0.900000E-01   1.00800           0   0.00000     -0.301140E-02
     22138 MEMB     179      PMPE     HY       HAL2     0.900000E-01   1.00800           0   0.00000     -0.301140E-02
     22139 MEMB     179      PMPE     O31      OSL     -0.490000       15.9994           0   0.00000     -0.301140E-02
     22140 MEMB     179      PMPE     C31      CL       0.900000       12.0110           0   0.00000     -0.301140E-02
     22141 MEMB     179      PMPE     O32      OBL     -0.630000       15.9994           0   0.00000     -0.301140E-02
     22142 MEMB     179      PMPE     C32      CTL2    -0.220000       12.0110           0   0.00000     -0.301140E-02
     22143 MEMB     179      PMPE     H2X      HAL2     0.900000E-01   1.00800           0   0.00000     -0.301140E-02
     22144 MEMB     179      PMPE     H2Y      HAL2     0.900000E-01   1.00800           0   0.00000     -0.301140E-02
     22145 MEMB     179      PMPE     C23      CTL2    -0.180000       12.0110           0   0.00000     -0.301140E-02
     22146 MEMB     179      PMPE     H3R      HAL2     0.900000E-01   1.00800           0   0.00000     -0.301140E-02
     22147 MEMB     179      PMPE     H3S      HAL2     0.900000E-01   1.00800           0   0.00000     -0.301140E-02
     22148 MEMB     179      PMPE     C24      CTL2    -0.180000       12.0110           0   0.00000     -0.301140E-02
     22149 MEMB     179      PMPE     H4R      HAL2     0.900000E-01   1.00800           0   0.00000     -0.301140E-02
     22150 MEMB     179      PMPE     H4S      HAL2     0.900000E-01   1.00800           0   0.00000     -0.301140E-02
     22151 MEMB     179      PMPE     C25      CTL2    -0.180000       12.0110           0   0.00000     -0.301140E-02
     22152 MEMB     179      PMPE     H5R      HAL2     0.900000E-01   1.00800           0   0.00000     -0.301140E-02
     22153 MEMB     179      PMPE     H5S      HAL2     0.900000E-01   1.00800           0   0.00000     -0.301140E-02
     22154 MEMB     179      PMPE     C26      CTL2    -0.180000       12.0110           0   0.00000     -0.301140E-02
     22155 MEMB     179      PMPE     H6R      HAL2     0.900000E-01   1.00800           0   0.00000     -0.301140E-02
     22156 MEMB     179      PMPE     H6S      HAL2     0.900000E-01   1.00800           0   0.00000     -0.301140E-02
     22157 MEMB     179      PMPE     C27      CTL2    -0.180000       12.0110           0   0.00000     -0.301140E-02
     22158 MEMB     179      PMPE     H7R      HAL2     0.900000E-01   1.00800           0   0.00000     -0.301140E-02
     22159 MEMB     179      PMPE     H7S      HAL2     0.900000E-01   1.00800           0   0.00000     -0.301140E-02
     22160 MEMB     179      PMPE     C28      CTL2    -0.180000       12.0110           0   0.00000     -0.301140E-02
     22161 MEMB     179      PMPE     H8R      HAL2     0.900000E-01   1.00800           0   0.00000     -0.301140E-02
     22162 MEMB     179      PMPE     H8S      HAL2     0.900000E-01   1.00800           0   0.00000     -0.301140E-02
     22163 MEMB     179      PMPE     C29      CG3RC1  -0.900000E-01   12.0110           0   0.00000     -0.301140E-02
     22164 MEMB     179      PMPE     H9R      HGA1     0.900000E-01   1.00800           0   0.00000     -0.301140E-02
     22165 MEMB     179      PMPE     C217     CG3C31  -0.180000       12.0110           0   0.00000     -0.301140E-02
     22166 MEMB     179      PMPE     H17R     HGA2     0.900000E-01   1.00800           0   0.00000     -0.301140E-02
     22167 MEMB     179      PMPE     H17S     HGA2     0.900000E-01   1.00800           0   0.00000     -0.301140E-02
     22168 MEMB     179      PMPE     C210     CG3RC1  -0.900000E-01   12.0110           0   0.00000     -0.301140E-02
     22169 MEMB     179      PMPE     H10R     HGA1     0.900000E-01   1.00800           0   0.00000     -0.301140E-02
     22170 MEMB     179      PMPE     C211     CTL2    -0.180000       12.0110           0   0.00000     -0.301140E-02
     22171 MEMB     179      PMPE     H11R     HAL2     0.900000E-01   1.00800           0   0.00000     -0.301140E-02
     22172 MEMB     179      PMPE     H11S     HAL2     0.900000E-01   1.00800           0   0.00000     -0.301140E-02
     22173 MEMB     179      PMPE     C212     CTL2    -0.180000       12.0110           0   0.00000     -0.301140E-02
     22174 MEMB     179      PMPE     H12R     HAL2     0.900000E-01   1.00800           0   0.00000     -0.301140E-02
     22175 MEMB     179      PMPE     H12S     HAL2     0.900000E-01   1.00800           0   0.00000     -0.301140E-02
     22176 MEMB     179      PMPE     C213     CTL2    -0.180000       12.0110           0   0.00000     -0.301140E-02
     22177 MEMB     179      PMPE     H13R     HAL2     0.900000E-01   1.00800           0   0.00000     -0.301140E-02
     22178 MEMB     179      PMPE     H13S     HAL2     0.900000E-01   1.00800           0   0.00000     -0.301140E-02
     22179 MEMB     179      PMPE     C214     CTL2    -0.180000       12.0110           0   0.00000     -0.301140E-02
     22180 MEMB     179      PMPE     H14R     HAL2     0.900000E-01   1.00800           0   0.00000     -0.301140E-02
     22181 MEMB     179      PMPE     H14S     HAL2     0.900000E-01   1.00800           0   0.00000     -0.301140E-02
     22182 MEMB     179      PMPE     C215     CTL2    -0.180000       12.0110           0   0.00000     -0.301140E-02
     22183 MEMB     179      PMPE     H15R     HAL2     0.900000E-01   1.00800           0   0.00000     -0.301140E-02
     22184 MEMB     179      PMPE     H15S     HAL2     0.900000E-01   1.00800           0   0.00000     -0.301140E-02
     22185 MEMB     179      PMPE     C216     CTL3    -0.270000       12.0110           0   0.00000     -0.301140E-02
     22186 MEMB     179      PMPE     H16R     HAL3     0.900000E-01   1.00800           0   0.00000     -0.301140E-02
     22187 MEMB     179      PMPE     H16S     HAL3     0.900000E-01   1.00800           0   0.00000     -0.301140E-02
     22188 MEMB     179      PMPE     H16T     HAL3     0.900000E-01   1.00800           0   0.00000     -0.301140E-02
     22189 MEMB     179      PMPE     C33      CTL2    -0.180000       12.0110           0   0.00000     -0.301140E-02
     22190 MEMB     179      PMPE     H3X      HAL2     0.900000E-01   1.00800           0   0.00000     -0.301140E-02
     22191 MEMB     179      PMPE     H3Y      HAL2     0.900000E-01   1.00800           0   0.00000     -0.301140E-02
     22192 MEMB     179      PMPE     C34      CTL2    -0.180000       12.0110           0   0.00000     -0.301140E-02
     22193 MEMB     179      PMPE     H4X      HAL2     0.900000E-01   1.00800           0   0.00000     -0.301140E-02
     22194 MEMB     179      PMPE     H4Y      HAL2     0.900000E-01   1.00800           0   0.00000     -0.301140E-02
     22195 MEMB     179      PMPE     C35      CTL2    -0.180000       12.0110           0   0.00000     -0.301140E-02
     22196 MEMB     179      PMPE     H5X      HAL2     0.900000E-01   1.00800           0   0.00000     -0.301140E-02
     22197 MEMB     179      PMPE     H5Y      HAL2     0.900000E-01   1.00800           0   0.00000     -0.301140E-02
     22198 MEMB     179      PMPE     C36      CTL2    -0.180000       12.0110           0   0.00000     -0.301140E-02
     22199 MEMB     179      PMPE     H6X      HAL2     0.900000E-01   1.00800           0   0.00000     -0.301140E-02
     22200 MEMB     179      PMPE     H6Y      HAL2     0.900000E-01   1.00800           0   0.00000     -0.301140E-02
     22201 MEMB     179      PMPE     C37      CTL2    -0.180000       12.0110           0   0.00000     -0.301140E-02
     22202 MEMB     179      PMPE     H7X      HAL2     0.900000E-01   1.00800           0   0.00000     -0.301140E-02
     22203 MEMB     179      PMPE     H7Y      HAL2     0.900000E-01   1.00800           0   0.00000     -0.301140E-02
     22204 MEMB     179      PMPE     C38      CTL2    -0.180000       12.0110           0   0.00000     -0.301140E-02
     22205 MEMB     179      PMPE     H8X      HAL2     0.900000E-01   1.00800           0   0.00000     -0.301140E-02
     22206 MEMB     179      PMPE     H8Y      HAL2     0.900000E-01   1.00800           0   0.00000     -0.301140E-02
     22207 MEMB     179      PMPE     C39      CTL2    -0.180000       12.0110           0   0.00000     -0.301140E-02
     22208 MEMB     179      PMPE     H9X      HAL2     0.900000E-01   1.00800           0   0.00000     -0.301140E-02
     22209 MEMB     179      PMPE     H9Y      HAL2     0.900000E-01   1.00800           0   0.00000     -0.301140E-02
     22210 MEMB     179      PMPE     C310     CTL2    -0.180000       12.0110           0   0.00000     -0.301140E-02
     22211 MEMB     179      PMPE     H10X     HAL2     0.900000E-01   1.00800           0   0.00000     -0.301140E-02
     22212 MEMB     179      PMPE     H10Y     HAL2     0.900000E-01   1.00800           0   0.00000     -0.301140E-02
     22213 MEMB     179      PMPE     C311     CTL2    -0.180000       12.0110           0   0.00000     -0.301140E-02
     22214 MEMB     179      PMPE     H11X     HAL2     0.900000E-01   1.00800           0   0.00000     -0.301140E-02
     22215 MEMB     179      PMPE     H11Y     HAL2     0.900000E-01   1.00800           0   0.00000     -0.301140E-02
     22216 MEMB     179      PMPE     C312     CTL2    -0.180000       12.0110           0   0.00000     -0.301140E-02
     22217 MEMB     179      PMPE     H12X     HAL2     0.900000E-01   1.00800           0   0.00000     -0.301140E-02
     22218 MEMB     179      PMPE     H12Y     HAL2     0.900000E-01   1.00800           0   0.00000     -0.301140E-02
     22219 MEMB     179      PMPE     C313     CTL2    -0.180000       12.0110           0   0.00000     -0.301140E-02
     22220 MEMB     179      PMPE     H13X     HAL2     0.900000E-01   1.00800           0   0.00000     -0.301140E-02
     22221 MEMB     179      PMPE     H13Y     HAL2     0.900000E-01   1.00800           0   0.00000     -0.301140E-02
     22222 MEMB     179      PMPE     C314     CTL2    -0.180000       12.0110           0   0.00000     -0.301140E-02
     22223 MEMB     179      PMPE     H14X     HAL2     0.900000E-01   1.00800           0   0.00000     -0.301140E-02
     22224 MEMB     179      PMPE     H14Y     HAL2     0.900000E-01   1.00800           0   0.00000     -0.301140E-02
     22225 MEMB     179      PMPE     C315     CTL2    -0.180000       12.0110           0   0.00000     -0.301140E-02
     22226 MEMB     179      PMPE     H15X     HAL2     0.900000E-01   1.00800           0   0.00000     -0.301140E-02
     22227 MEMB     179      PMPE     H15Y     HAL2     0.900000E-01   1.00800           0   0.00000     -0.301140E-02
     22228 MEMB     179      PMPE     C316     CTL3    -0.270000       12.0110           0   0.00000     -0.301140E-02
     22229 MEMB     179      PMPE     H16X     HAL3     0.900000E-01   1.00800           0   0.00000     -0.301140E-02
     22230 MEMB     179      PMPE     H16Y     HAL3     0.900000E-01   1.00800           0   0.00000     -0.301140E-02
     22231 MEMB     179      PMPE     H16Z     HAL3     0.900000E-01   1.00800           0   0.00000     -0.301140E-02
     22232 MEMB     180      PMPE     N        NH3L    -0.300000       14.0070           0   0.00000     -0.301140E-02
     22233 MEMB     180      PMPE     HN1      HCL      0.330000       1.00800           0   0.00000     -0.301140E-02
     22234 MEMB     180      PMPE     HN2      HCL      0.330000       1.00800           0   0.00000     -0.301140E-02
     22235 MEMB     180      PMPE     HN3      HCL      0.330000       1.00800           0   0.00000     -0.301140E-02
     22236 MEMB     180      PMPE     C12      CTL2     0.130000       12.0110           0   0.00000     -0.301140E-02
     22237 MEMB     180      PMPE     H12A     HAL2     0.900000E-01   1.00800           0   0.00000     -0.301140E-02
     22238 MEMB     180      PMPE     H12B     HAL2     0.900000E-01   1.00800           0   0.00000     -0.301140E-02
     22239 MEMB     180      PMPE     C11      CTL2    -0.800000E-01   12.0110           0   0.00000     -0.301140E-02
     22240 MEMB     180      PMPE     H11A     HAL2     0.900000E-01   1.00800           0   0.00000     -0.301140E-02
     22241 MEMB     180      PMPE     H11B     HAL2     0.900000E-01   1.00800           0   0.00000     -0.301140E-02
     22242 MEMB     180      PMPE     P        PL        1.50000       30.9740           0   0.00000     -0.301140E-02
     22243 MEMB     180      PMPE     O13      O2L     -0.780000       15.9994           0   0.00000     -0.301140E-02
     22244 MEMB     180      PMPE     O14      O2L     -0.780000       15.9994           0   0.00000     -0.301140E-02
     22245 MEMB     180      PMPE     O11      OSLP    -0.570000       15.9994           0   0.00000     -0.301140E-02
     22246 MEMB     180      PMPE     O12      OSLP    -0.570000       15.9994           0   0.00000     -0.301140E-02
     22247 MEMB     180      PMPE     C1       CTL2    -0.800000E-01   12.0110           0   0.00000     -0.301140E-02
     22248 MEMB     180      PMPE     HA       HAL2     0.900000E-01   1.00800           0   0.00000     -0.301140E-02
     22249 MEMB     180      PMPE     HB       HAL2     0.900000E-01   1.00800           0   0.00000     -0.301140E-02
     22250 MEMB     180      PMPE     C2       CTL1     0.170000       12.0110           0   0.00000     -0.301140E-02
     22251 MEMB     180      PMPE     HS       HAL1     0.900000E-01   1.00800           0   0.00000     -0.301140E-02
     22252 MEMB     180      PMPE     O21      OSL     -0.490000       15.9994           0   0.00000     -0.301140E-02
     22253 MEMB     180      PMPE     C21      CL       0.900000       12.0110           0   0.00000     -0.301140E-02
     22254 MEMB     180      PMPE     O22      OBL     -0.630000       15.9994           0   0.00000     -0.301140E-02
     22255 MEMB     180      PMPE     C22      CTL2    -0.220000       12.0110           0   0.00000     -0.301140E-02
     22256 MEMB     180      PMPE     H2R      HAL2     0.900000E-01   1.00800           0   0.00000     -0.301140E-02
     22257 MEMB     180      PMPE     H2S      HAL2     0.900000E-01   1.00800           0   0.00000     -0.301140E-02
     22258 MEMB     180      PMPE     C3       CTL2     0.800000E-01   12.0110           0   0.00000     -0.301140E-02
     22259 MEMB     180      PMPE     HX       HAL2     0.900000E-01   1.00800           0   0.00000     -0.301140E-02
     22260 MEMB     180      PMPE     HY       HAL2     0.900000E-01   1.00800           0   0.00000     -0.301140E-02
     22261 MEMB     180      PMPE     O31      OSL     -0.490000       15.9994           0   0.00000     -0.301140E-02
     22262 MEMB     180      PMPE     C31      CL       0.900000       12.0110           0   0.00000     -0.301140E-02
     22263 MEMB     180      PMPE     O32      OBL     -0.630000       15.9994           0   0.00000     -0.301140E-02
     22264 MEMB     180      PMPE     C32      CTL2    -0.220000       12.0110           0   0.00000     -0.301140E-02
     22265 MEMB     180      PMPE     H2X      HAL2     0.900000E-01   1.00800           0   0.00000     -0.301140E-02
     22266 MEMB     180      PMPE     H2Y      HAL2     0.900000E-01   1.00800           0   0.00000     -0.301140E-02
     22267 MEMB     180      PMPE     C23      CTL2    -0.180000       12.0110           0   0.00000     -0.301140E-02
     22268 MEMB     180      PMPE     H3R      HAL2     0.900000E-01   1.00800           0   0.00000     -0.301140E-02
     22269 MEMB     180      PMPE     H3S      HAL2     0.900000E-01   1.00800           0   0.00000     -0.301140E-02
     22270 MEMB     180      PMPE     C24      CTL2    -0.180000       12.0110           0   0.00000     -0.301140E-02
     22271 MEMB     180      PMPE     H4R      HAL2     0.900000E-01   1.00800           0   0.00000     -0.301140E-02
     22272 MEMB     180      PMPE     H4S      HAL2     0.900000E-01   1.00800           0   0.00000     -0.301140E-02
     22273 MEMB     180      PMPE     C25      CTL2    -0.180000       12.0110           0   0.00000     -0.301140E-02
     22274 MEMB     180      PMPE     H5R      HAL2     0.900000E-01   1.00800           0   0.00000     -0.301140E-02
     22275 MEMB     180      PMPE     H5S      HAL2     0.900000E-01   1.00800           0   0.00000     -0.301140E-02
     22276 MEMB     180      PMPE     C26      CTL2    -0.180000       12.0110           0   0.00000     -0.301140E-02
     22277 MEMB     180      PMPE     H6R      HAL2     0.900000E-01   1.00800           0   0.00000     -0.301140E-02
     22278 MEMB     180      PMPE     H6S      HAL2     0.900000E-01   1.00800           0   0.00000     -0.301140E-02
     22279 MEMB     180      PMPE     C27      CTL2    -0.180000       12.0110           0   0.00000     -0.301140E-02
     22280 MEMB     180      PMPE     H7R      HAL2     0.900000E-01   1.00800           0   0.00000     -0.301140E-02
     22281 MEMB     180      PMPE     H7S      HAL2     0.900000E-01   1.00800           0   0.00000     -0.301140E-02
     22282 MEMB     180      PMPE     C28      CTL2    -0.180000       12.0110           0   0.00000     -0.301140E-02
     22283 MEMB     180      PMPE     H8R      HAL2     0.900000E-01   1.00800           0   0.00000     -0.301140E-02
     22284 MEMB     180      PMPE     H8S      HAL2     0.900000E-01   1.00800           0   0.00000     -0.301140E-02
     22285 MEMB     180      PMPE     C29      CG3RC1  -0.900000E-01   12.0110           0   0.00000     -0.301140E-02
     22286 MEMB     180      PMPE     H9R      HGA1     0.900000E-01   1.00800           0   0.00000     -0.301140E-02
     22287 MEMB     180      PMPE     C217     CG3C31  -0.180000       12.0110           0   0.00000     -0.301140E-02
     22288 MEMB     180      PMPE     H17R     HGA2     0.900000E-01   1.00800           0   0.00000     -0.301140E-02
     22289 MEMB     180      PMPE     H17S     HGA2     0.900000E-01   1.00800           0   0.00000     -0.301140E-02
     22290 MEMB     180      PMPE     C210     CG3RC1  -0.900000E-01   12.0110           0   0.00000     -0.301140E-02
     22291 MEMB     180      PMPE     H10R     HGA1     0.900000E-01   1.00800           0   0.00000     -0.301140E-02
     22292 MEMB     180      PMPE     C211     CTL2    -0.180000       12.0110           0   0.00000     -0.301140E-02
     22293 MEMB     180      PMPE     H11R     HAL2     0.900000E-01   1.00800           0   0.00000     -0.301140E-02
     22294 MEMB     180      PMPE     H11S     HAL2     0.900000E-01   1.00800           0   0.00000     -0.301140E-02
     22295 MEMB     180      PMPE     C212     CTL2    -0.180000       12.0110           0   0.00000     -0.301140E-02
     22296 MEMB     180      PMPE     H12R     HAL2     0.900000E-01   1.00800           0   0.00000     -0.301140E-02
     22297 MEMB     180      PMPE     H12S     HAL2     0.900000E-01   1.00800           0   0.00000     -0.301140E-02
     22298 MEMB     180      PMPE     C213     CTL2    -0.180000       12.0110           0   0.00000     -0.301140E-02
     22299 MEMB     180      PMPE     H13R     HAL2     0.900000E-01   1.00800           0   0.00000     -0.301140E-02
     22300 MEMB     180      PMPE     H13S     HAL2     0.900000E-01   1.00800           0   0.00000     -0.301140E-02
     22301 MEMB     180      PMPE     C214     CTL2    -0.180000       12.0110           0   0.00000     -0.301140E-02
     22302 MEMB     180      PMPE     H14R     HAL2     0.900000E-01   1.00800           0   0.00000     -0.301140E-02
     22303 MEMB     180      PMPE     H14S     HAL2     0.900000E-01   1.00800           0   0.00000     -0.301140E-02
     22304 MEMB     180      PMPE     C215     CTL2    -0.180000       12.0110           0   0.00000     -0.301140E-02
     22305 MEMB     180      PMPE     H15R     HAL2     0.900000E-01   1.00800           0   0.00000     -0.301140E-02
     22306 MEMB     180      PMPE     H15S     HAL2     0.900000E-01   1.00800           0   0.00000     -0.301140E-02
     22307 MEMB     180      PMPE     C216     CTL3    -0.270000       12.0110           0   0.00000     -0.301140E-02
     22308 MEMB     180      PMPE     H16R     HAL3     0.900000E-01   1.00800           0   0.00000     -0.301140E-02
     22309 MEMB     180      PMPE     H16S     HAL3     0.900000E-01   1.00800           0   0.00000     -0.301140E-02
     22310 MEMB     180      PMPE     H16T     HAL3     0.900000E-01   1.00800           0   0.00000     -0.301140E-02
     22311 MEMB     180      PMPE     C33      CTL2    -0.180000       12.0110           0   0.00000     -0.301140E-02
     22312 MEMB     180      PMPE     H3X      HAL2     0.900000E-01   1.00800           0   0.00000     -0.301140E-02
     22313 MEMB     180      PMPE     H3Y      HAL2     0.900000E-01   1.00800           0   0.00000     -0.301140E-02
     22314 MEMB     180      PMPE     C34      CTL2    -0.180000       12.0110           0   0.00000     -0.301140E-02
     22315 MEMB     180      PMPE     H4X      HAL2     0.900000E-01   1.00800           0   0.00000     -0.301140E-02
     22316 MEMB     180      PMPE     H4Y      HAL2     0.900000E-01   1.00800           0   0.00000     -0.301140E-02
     22317 MEMB     180      PMPE     C35      CTL2    -0.180000       12.0110           0   0.00000     -0.301140E-02
     22318 MEMB     180      PMPE     H5X      HAL2     0.900000E-01   1.00800           0   0.00000     -0.301140E-02
     22319 MEMB     180      PMPE     H5Y      HAL2     0.900000E-01   1.00800           0   0.00000     -0.301140E-02
     22320 MEMB     180      PMPE     C36      CTL2    -0.180000       12.0110           0   0.00000     -0.301140E-02
     22321 MEMB     180      PMPE     H6X      HAL2     0.900000E-01   1.00800           0   0.00000     -0.301140E-02
     22322 MEMB     180      PMPE     H6Y      HAL2     0.900000E-01   1.00800           0   0.00000     -0.301140E-02
     22323 MEMB     180      PMPE     C37      CTL2    -0.180000       12.0110           0   0.00000     -0.301140E-02
     22324 MEMB     180      PMPE     H7X      HAL2     0.900000E-01   1.00800           0   0.00000     -0.301140E-02
     22325 MEMB     180      PMPE     H7Y      HAL2     0.900000E-01   1.00800           0   0.00000     -0.301140E-02
     22326 MEMB     180      PMPE     C38      CTL2    -0.180000       12.0110           0   0.00000     -0.301140E-02
     22327 MEMB     180      PMPE     H8X      HAL2     0.900000E-01   1.00800           0   0.00000     -0.301140E-02
     22328 MEMB     180      PMPE     H8Y      HAL2     0.900000E-01   1.00800           0   0.00000     -0.301140E-02
     22329 MEMB     180      PMPE     C39      CTL2    -0.180000       12.0110           0   0.00000     -0.301140E-02
     22330 MEMB     180      PMPE     H9X      HAL2     0.900000E-01   1.00800           0   0.00000     -0.301140E-02
     22331 MEMB     180      PMPE     H9Y      HAL2     0.900000E-01   1.00800           0   0.00000     -0.301140E-02
     22332 MEMB     180      PMPE     C310     CTL2    -0.180000       12.0110           0   0.00000     -0.301140E-02
     22333 MEMB     180      PMPE     H10X     HAL2     0.900000E-01   1.00800           0   0.00000     -0.301140E-02
     22334 MEMB     180      PMPE     H10Y     HAL2     0.900000E-01   1.00800           0   0.00000     -0.301140E-02
     22335 MEMB     180      PMPE     C311     CTL2    -0.180000       12.0110           0   0.00000     -0.301140E-02
     22336 MEMB     180      PMPE     H11X     HAL2     0.900000E-01   1.00800           0   0.00000     -0.301140E-02
     22337 MEMB     180      PMPE     H11Y     HAL2     0.900000E-01   1.00800           0   0.00000     -0.301140E-02
     22338 MEMB     180      PMPE     C312     CTL2    -0.180000       12.0110           0   0.00000     -0.301140E-02
     22339 MEMB     180      PMPE     H12X     HAL2     0.900000E-01   1.00800           0   0.00000     -0.301140E-02
     22340 MEMB     180      PMPE     H12Y     HAL2     0.900000E-01   1.00800           0   0.00000     -0.301140E-02
     22341 MEMB     180      PMPE     C313     CTL2    -0.180000       12.0110           0   0.00000     -0.301140E-02
     22342 MEMB     180      PMPE     H13X     HAL2     0.900000E-01   1.00800           0   0.00000     -0.301140E-02
     22343 MEMB     180      PMPE     H13Y     HAL2     0.900000E-01   1.00800           0   0.00000     -0.301140E-02
     22344 MEMB     180      PMPE     C314     CTL2    -0.180000       12.0110           0   0.00000     -0.301140E-02
     22345 MEMB     180      PMPE     H14X     HAL2     0.900000E-01   1.00800           0   0.00000     -0.301140E-02
     22346 MEMB     180      PMPE     H14Y     HAL2     0.900000E-01   1.00800           0   0.00000     -0.301140E-02
     22347 MEMB     180      PMPE     C315     CTL2    -0.180000       12.0110           0   0.00000     -0.301140E-02
     22348 MEMB     180      PMPE     H15X     HAL2     0.900000E-01   1.00800           0   0.00000     -0.301140E-02
     22349 MEMB     180      PMPE     H15Y     HAL2     0.900000E-01   1.00800           0   0.00000     -0.301140E-02
     22350 MEMB     180      PMPE     C316     CTL3    -0.270000       12.0110           0   0.00000     -0.301140E-02
     22351 MEMB     180      PMPE     H16X     HAL3     0.900000E-01   1.00800           0   0.00000     -0.301140E-02
     22352 MEMB     180      PMPE     H16Y     HAL3     0.900000E-01   1.00800           0   0.00000     -0.301140E-02
     22353 MEMB     180      PMPE     H16Z     HAL3     0.900000E-01   1.00800           0   0.00000     -0.301140E-02
     22354 MEMB     181      PYPG     C13      CTL2     0.500000E-01   12.0110           0   0.00000     -0.301140E-02
     22355 MEMB     181      PYPG     H13A     HAL2     0.900000E-01   1.00800           0   0.00000     -0.301140E-02
     22356 MEMB     181      PYPG     H13B     HAL2     0.900000E-01   1.00800           0   0.00000     -0.301140E-02
     22357 MEMB     181      PYPG     OC3      OHL     -0.660000       15.9994           0   0.00000     -0.301140E-02
     22358 MEMB     181      PYPG     HO3      HOL      0.430000       1.00800           0   0.00000     -0.301140E-02
     22359 MEMB     181      PYPG     C12      CTL1     0.140000       12.0110           0   0.00000     -0.301140E-02
     22360 MEMB     181      PYPG     H12A     HAL1     0.900000E-01   1.00800           0   0.00000     -0.301140E-02
     22361 MEMB     181      PYPG     OC2      OHL     -0.660000       15.9994           0   0.00000     -0.301140E-02
     22362 MEMB     181      PYPG     HO2      HOL      0.430000       1.00800           0   0.00000     -0.301140E-02
     22363 MEMB     181      PYPG     C11      CTL2    -0.800000E-01   12.0110           0   0.00000     -0.301140E-02
     22364 MEMB     181      PYPG     H11A     HAL2     0.900000E-01   1.00800           0   0.00000     -0.301140E-02
     22365 MEMB     181      PYPG     H11B     HAL2     0.900000E-01   1.00800           0   0.00000     -0.301140E-02
     22366 MEMB     181      PYPG     P        PL        1.50000       30.9740           0   0.00000     -0.301140E-02
     22367 MEMB     181      PYPG     O13      O2L     -0.780000       15.9994           0   0.00000     -0.301140E-02
     22368 MEMB     181      PYPG     O14      O2L     -0.780000       15.9994           0   0.00000     -0.301140E-02
     22369 MEMB     181      PYPG     O11      OSLP    -0.570000       15.9994           0   0.00000     -0.301140E-02
     22370 MEMB     181      PYPG     O12      OSLP    -0.570000       15.9994           0   0.00000     -0.301140E-02
     22371 MEMB     181      PYPG     C1       CTL2    -0.800000E-01   12.0110           0   0.00000     -0.301140E-02
     22372 MEMB     181      PYPG     HA       HAL2     0.900000E-01   1.00800           0   0.00000     -0.301140E-02
     22373 MEMB     181      PYPG     HB       HAL2     0.900000E-01   1.00800           0   0.00000     -0.301140E-02
     22374 MEMB     181      PYPG     C2       CTL1     0.170000       12.0110           0   0.00000     -0.301140E-02
     22375 MEMB     181      PYPG     HS       HAL1     0.900000E-01   1.00800           0   0.00000     -0.301140E-02
     22376 MEMB     181      PYPG     O21      OSL     -0.490000       15.9994           0   0.00000     -0.301140E-02
     22377 MEMB     181      PYPG     C21      CL       0.900000       12.0110           0   0.00000     -0.301140E-02
     22378 MEMB     181      PYPG     O22      OBL     -0.630000       15.9994           0   0.00000     -0.301140E-02
     22379 MEMB     181      PYPG     C22      CTL2    -0.220000       12.0110           0   0.00000     -0.301140E-02
     22380 MEMB     181      PYPG     H2R      HAL2     0.900000E-01   1.00800           0   0.00000     -0.301140E-02
     22381 MEMB     181      PYPG     H2S      HAL2     0.900000E-01   1.00800           0   0.00000     -0.301140E-02
     22382 MEMB     181      PYPG     C3       CTL2     0.800000E-01   12.0110           0   0.00000     -0.301140E-02
     22383 MEMB     181      PYPG     HX       HAL2     0.900000E-01   1.00800           0   0.00000     -0.301140E-02
     22384 MEMB     181      PYPG     HY       HAL2     0.900000E-01   1.00800           0   0.00000     -0.301140E-02
     22385 MEMB     181      PYPG     O31      OSL     -0.490000       15.9994           0   0.00000     -0.301140E-02
     22386 MEMB     181      PYPG     C31      CL       0.900000       12.0110           0   0.00000     -0.301140E-02
     22387 MEMB     181      PYPG     O32      OBL     -0.630000       15.9994           0   0.00000     -0.301140E-02
     22388 MEMB     181      PYPG     C32      CTL2    -0.220000       12.0110           0   0.00000     -0.301140E-02
     22389 MEMB     181      PYPG     H2X      HAL2     0.900000E-01   1.00800           0   0.00000     -0.301140E-02
     22390 MEMB     181      PYPG     H2Y      HAL2     0.900000E-01   1.00800           0   0.00000     -0.301140E-02
     22391 MEMB     181      PYPG     C23      CTL2    -0.180000       12.0110           0   0.00000     -0.301140E-02
     22392 MEMB     181      PYPG     H3R      HAL2     0.900000E-01   1.00800           0   0.00000     -0.301140E-02
     22393 MEMB     181      PYPG     H3S      HAL2     0.900000E-01   1.00800           0   0.00000     -0.301140E-02
     22394 MEMB     181      PYPG     C24      CTL2    -0.180000       12.0110           0   0.00000     -0.301140E-02
     22395 MEMB     181      PYPG     H4R      HAL2     0.900000E-01   1.00800           0   0.00000     -0.301140E-02
     22396 MEMB     181      PYPG     H4S      HAL2     0.900000E-01   1.00800           0   0.00000     -0.301140E-02
     22397 MEMB     181      PYPG     C25      CTL2    -0.180000       12.0110           0   0.00000     -0.301140E-02
     22398 MEMB     181      PYPG     H5R      HAL2     0.900000E-01   1.00800           0   0.00000     -0.301140E-02
     22399 MEMB     181      PYPG     H5S      HAL2     0.900000E-01   1.00800           0   0.00000     -0.301140E-02
     22400 MEMB     181      PYPG     C26      CTL2    -0.180000       12.0110           0   0.00000     -0.301140E-02
     22401 MEMB     181      PYPG     H6R      HAL2     0.900000E-01   1.00800           0   0.00000     -0.301140E-02
     22402 MEMB     181      PYPG     H6S      HAL2     0.900000E-01   1.00800           0   0.00000     -0.301140E-02
     22403 MEMB     181      PYPG     C27      CTL2    -0.180000       12.0110           0   0.00000     -0.301140E-02
     22404 MEMB     181      PYPG     H7R      HAL2     0.900000E-01   1.00800           0   0.00000     -0.301140E-02
     22405 MEMB     181      PYPG     H7S      HAL2     0.900000E-01   1.00800           0   0.00000     -0.301140E-02
     22406 MEMB     181      PYPG     C28      CTL2    -0.180000       12.0110           0   0.00000     -0.301140E-02
     22407 MEMB     181      PYPG     H8R      HAL2     0.900000E-01   1.00800           0   0.00000     -0.301140E-02
     22408 MEMB     181      PYPG     H8S      HAL2     0.900000E-01   1.00800           0   0.00000     -0.301140E-02
     22409 MEMB     181      PYPG     C29      CEL1    -0.150000       12.0110           0   0.00000     -0.301140E-02
     22410 MEMB     181      PYPG     H9R      HEL1     0.150000       1.00800           0   0.00000     -0.301140E-02
     22411 MEMB     181      PYPG     C210     CEL1    -0.150000       12.0110           0   0.00000     -0.301140E-02
     22412 MEMB     181      PYPG     H10R     HEL1     0.150000       1.00800           0   0.00000     -0.301140E-02
     22413 MEMB     181      PYPG     C211     CTL2    -0.180000       12.0110           0   0.00000     -0.301140E-02
     22414 MEMB     181      PYPG     H11R     HAL2     0.900000E-01   1.00800           0   0.00000     -0.301140E-02
     22415 MEMB     181      PYPG     H11S     HAL2     0.900000E-01   1.00800           0   0.00000     -0.301140E-02
     22416 MEMB     181      PYPG     C212     CTL2    -0.180000       12.0110           0   0.00000     -0.301140E-02
     22417 MEMB     181      PYPG     H12R     HAL2     0.900000E-01   1.00800           0   0.00000     -0.301140E-02
     22418 MEMB     181      PYPG     H12S     HAL2     0.900000E-01   1.00800           0   0.00000     -0.301140E-02
     22419 MEMB     181      PYPG     C213     CTL2    -0.180000       12.0110           0   0.00000     -0.301140E-02
     22420 MEMB     181      PYPG     H13R     HAL2     0.900000E-01   1.00800           0   0.00000     -0.301140E-02
     22421 MEMB     181      PYPG     H13S     HAL2     0.900000E-01   1.00800           0   0.00000     -0.301140E-02
     22422 MEMB     181      PYPG     C214     CTL2    -0.180000       12.0110           0   0.00000     -0.301140E-02
     22423 MEMB     181      PYPG     H14R     HAL2     0.900000E-01   1.00800           0   0.00000     -0.301140E-02
     22424 MEMB     181      PYPG     H14S     HAL2     0.900000E-01   1.00800           0   0.00000     -0.301140E-02
     22425 MEMB     181      PYPG     C215     CTL2    -0.180000       12.0110           0   0.00000     -0.301140E-02
     22426 MEMB     181      PYPG     H15R     HAL2     0.900000E-01   1.00800           0   0.00000     -0.301140E-02
     22427 MEMB     181      PYPG     H15S     HAL2     0.900000E-01   1.00800           0   0.00000     -0.301140E-02
     22428 MEMB     181      PYPG     C216     CTL3    -0.270000       12.0110           0   0.00000     -0.301140E-02
     22429 MEMB     181      PYPG     H16R     HAL3     0.900000E-01   1.00800           0   0.00000     -0.301140E-02
     22430 MEMB     181      PYPG     H16S     HAL3     0.900000E-01   1.00800           0   0.00000     -0.301140E-02
     22431 MEMB     181      PYPG     H16T     HAL3     0.900000E-01   1.00800           0   0.00000     -0.301140E-02
     22432 MEMB     181      PYPG     C33      CTL2    -0.180000       12.0110           0   0.00000     -0.301140E-02
     22433 MEMB     181      PYPG     H3X      HAL2     0.900000E-01   1.00800           0   0.00000     -0.301140E-02
     22434 MEMB     181      PYPG     H3Y      HAL2     0.900000E-01   1.00800           0   0.00000     -0.301140E-02
     22435 MEMB     181      PYPG     C34      CTL2    -0.180000       12.0110           0   0.00000     -0.301140E-02
     22436 MEMB     181      PYPG     H4X      HAL2     0.900000E-01   1.00800           0   0.00000     -0.301140E-02
     22437 MEMB     181      PYPG     H4Y      HAL2     0.900000E-01   1.00800           0   0.00000     -0.301140E-02
     22438 MEMB     181      PYPG     C35      CTL2    -0.180000       12.0110           0   0.00000     -0.301140E-02
     22439 MEMB     181      PYPG     H5X      HAL2     0.900000E-01   1.00800           0   0.00000     -0.301140E-02
     22440 MEMB     181      PYPG     H5Y      HAL2     0.900000E-01   1.00800           0   0.00000     -0.301140E-02
     22441 MEMB     181      PYPG     C36      CTL2    -0.180000       12.0110           0   0.00000     -0.301140E-02
     22442 MEMB     181      PYPG     H6X      HAL2     0.900000E-01   1.00800           0   0.00000     -0.301140E-02
     22443 MEMB     181      PYPG     H6Y      HAL2     0.900000E-01   1.00800           0   0.00000     -0.301140E-02
     22444 MEMB     181      PYPG     C37      CTL2    -0.180000       12.0110           0   0.00000     -0.301140E-02
     22445 MEMB     181      PYPG     H7X      HAL2     0.900000E-01   1.00800           0   0.00000     -0.301140E-02
     22446 MEMB     181      PYPG     H7Y      HAL2     0.900000E-01   1.00800           0   0.00000     -0.301140E-02
     22447 MEMB     181      PYPG     C38      CTL2    -0.180000       12.0110           0   0.00000     -0.301140E-02
     22448 MEMB     181      PYPG     H8X      HAL2     0.900000E-01   1.00800           0   0.00000     -0.301140E-02
     22449 MEMB     181      PYPG     H8Y      HAL2     0.900000E-01   1.00800           0   0.00000     -0.301140E-02
     22450 MEMB     181      PYPG     C39      CTL2    -0.180000       12.0110           0   0.00000     -0.301140E-02
     22451 MEMB     181      PYPG     H9X      HAL2     0.900000E-01   1.00800           0   0.00000     -0.301140E-02
     22452 MEMB     181      PYPG     H9Y      HAL2     0.900000E-01   1.00800           0   0.00000     -0.301140E-02
     22453 MEMB     181      PYPG     C310     CTL2    -0.180000       12.0110           0   0.00000     -0.301140E-02
     22454 MEMB     181      PYPG     H10X     HAL2     0.900000E-01   1.00800           0   0.00000     -0.301140E-02
     22455 MEMB     181      PYPG     H10Y     HAL2     0.900000E-01   1.00800           0   0.00000     -0.301140E-02
     22456 MEMB     181      PYPG     C311     CTL2    -0.180000       12.0110           0   0.00000     -0.301140E-02
     22457 MEMB     181      PYPG     H11X     HAL2     0.900000E-01   1.00800           0   0.00000     -0.301140E-02
     22458 MEMB     181      PYPG     H11Y     HAL2     0.900000E-01   1.00800           0   0.00000     -0.301140E-02
     22459 MEMB     181      PYPG     C312     CTL2    -0.180000       12.0110           0   0.00000     -0.301140E-02
     22460 MEMB     181      PYPG     H12X     HAL2     0.900000E-01   1.00800           0   0.00000     -0.301140E-02
     22461 MEMB     181      PYPG     H12Y     HAL2     0.900000E-01   1.00800           0   0.00000     -0.301140E-02
     22462 MEMB     181      PYPG     C313     CTL2    -0.180000       12.0110           0   0.00000     -0.301140E-02
     22463 MEMB     181      PYPG     H13X     HAL2     0.900000E-01   1.00800           0   0.00000     -0.301140E-02
     22464 MEMB     181      PYPG     H13Y     HAL2     0.900000E-01   1.00800           0   0.00000     -0.301140E-02
     22465 MEMB     181      PYPG     C314     CTL2    -0.180000       12.0110           0   0.00000     -0.301140E-02
     22466 MEMB     181      PYPG     H14X     HAL2     0.900000E-01   1.00800           0   0.00000     -0.301140E-02
     22467 MEMB     181      PYPG     H14Y     HAL2     0.900000E-01   1.00800           0   0.00000     -0.301140E-02
     22468 MEMB     181      PYPG     C315     CTL2    -0.180000       12.0110           0   0.00000     -0.301140E-02
     22469 MEMB     181      PYPG     H15X     HAL2     0.900000E-01   1.00800           0   0.00000     -0.301140E-02
     22470 MEMB     181      PYPG     H15Y     HAL2     0.900000E-01   1.00800           0   0.00000     -0.301140E-02
     22471 MEMB     181      PYPG     C316     CTL3    -0.270000       12.0110           0   0.00000     -0.301140E-02
     22472 MEMB     181      PYPG     H16X     HAL3     0.900000E-01   1.00800           0   0.00000     -0.301140E-02
     22473 MEMB     181      PYPG     H16Y     HAL3     0.900000E-01   1.00800           0   0.00000     -0.301140E-02
     22474 MEMB     181      PYPG     H16Z     HAL3     0.900000E-01   1.00800           0   0.00000     -0.301140E-02
     22475 MEMB     182      OYPE     N        NH3L    -0.300000       14.0070           0   0.00000     -0.301140E-02
     22476 MEMB     182      OYPE     HN1      HCL      0.330000       1.00800           0   0.00000     -0.301140E-02
     22477 MEMB     182      OYPE     HN2      HCL      0.330000       1.00800           0   0.00000     -0.301140E-02
     22478 MEMB     182      OYPE     HN3      HCL      0.330000       1.00800           0   0.00000     -0.301140E-02
     22479 MEMB     182      OYPE     C12      CTL2     0.130000       12.0110           0   0.00000     -0.301140E-02
     22480 MEMB     182      OYPE     H12A     HAL2     0.900000E-01   1.00800           0   0.00000     -0.301140E-02
     22481 MEMB     182      OYPE     H12B     HAL2     0.900000E-01   1.00800           0   0.00000     -0.301140E-02
     22482 MEMB     182      OYPE     C11      CTL2    -0.800000E-01   12.0110           0   0.00000     -0.301140E-02
     22483 MEMB     182      OYPE     H11A     HAL2     0.900000E-01   1.00800           0   0.00000     -0.301140E-02
     22484 MEMB     182      OYPE     H11B     HAL2     0.900000E-01   1.00800           0   0.00000     -0.301140E-02
     22485 MEMB     182      OYPE     P        PL        1.50000       30.9740           0   0.00000     -0.301140E-02
     22486 MEMB     182      OYPE     O13      O2L     -0.780000       15.9994           0   0.00000     -0.301140E-02
     22487 MEMB     182      OYPE     O14      O2L     -0.780000       15.9994           0   0.00000     -0.301140E-02
     22488 MEMB     182      OYPE     O11      OSLP    -0.570000       15.9994           0   0.00000     -0.301140E-02
     22489 MEMB     182      OYPE     O12      OSLP    -0.570000       15.9994           0   0.00000     -0.301140E-02
     22490 MEMB     182      OYPE     C1       CTL2    -0.800000E-01   12.0110           0   0.00000     -0.301140E-02
     22491 MEMB     182      OYPE     HA       HAL2     0.900000E-01   1.00800           0   0.00000     -0.301140E-02
     22492 MEMB     182      OYPE     HB       HAL2     0.900000E-01   1.00800           0   0.00000     -0.301140E-02
     22493 MEMB     182      OYPE     C2       CTL1     0.170000       12.0110           0   0.00000     -0.301140E-02
     22494 MEMB     182      OYPE     HS       HAL1     0.900000E-01   1.00800           0   0.00000     -0.301140E-02
     22495 MEMB     182      OYPE     O21      OSL     -0.490000       15.9994           0   0.00000     -0.301140E-02
     22496 MEMB     182      OYPE     C21      CL       0.900000       12.0110           0   0.00000     -0.301140E-02
     22497 MEMB     182      OYPE     O22      OBL     -0.630000       15.9994           0   0.00000     -0.301140E-02
     22498 MEMB     182      OYPE     C22      CTL2    -0.220000       12.0110           0   0.00000     -0.301140E-02
     22499 MEMB     182      OYPE     H2R      HAL2     0.900000E-01   1.00800           0   0.00000     -0.301140E-02
     22500 MEMB     182      OYPE     H2S      HAL2     0.900000E-01   1.00800           0   0.00000     -0.301140E-02
     22501 MEMB     182      OYPE     C3       CTL2     0.800000E-01   12.0110           0   0.00000     -0.301140E-02
     22502 MEMB     182      OYPE     HX       HAL2     0.900000E-01   1.00800           0   0.00000     -0.301140E-02
     22503 MEMB     182      OYPE     HY       HAL2     0.900000E-01   1.00800           0   0.00000     -0.301140E-02
     22504 MEMB     182      OYPE     O31      OSL     -0.490000       15.9994           0   0.00000     -0.301140E-02
     22505 MEMB     182      OYPE     C31      CL       0.900000       12.0110           0   0.00000     -0.301140E-02
     22506 MEMB     182      OYPE     O32      OBL     -0.630000       15.9994           0   0.00000     -0.301140E-02
     22507 MEMB     182      OYPE     C32      CTL2    -0.220000       12.0110           0   0.00000     -0.301140E-02
     22508 MEMB     182      OYPE     H2X      HAL2     0.900000E-01   1.00800           0   0.00000     -0.301140E-02
     22509 MEMB     182      OYPE     H2Y      HAL2     0.900000E-01   1.00800           0   0.00000     -0.301140E-02
     22510 MEMB     182      OYPE     C23      CTL2    -0.180000       12.0110           0   0.00000     -0.301140E-02
     22511 MEMB     182      OYPE     H3R      HAL2     0.900000E-01   1.00800           0   0.00000     -0.301140E-02
     22512 MEMB     182      OYPE     H3S      HAL2     0.900000E-01   1.00800           0   0.00000     -0.301140E-02
     22513 MEMB     182      OYPE     C24      CTL2    -0.180000       12.0110           0   0.00000     -0.301140E-02
     22514 MEMB     182      OYPE     H4R      HAL2     0.900000E-01   1.00800           0   0.00000     -0.301140E-02
     22515 MEMB     182      OYPE     H4S      HAL2     0.900000E-01   1.00800           0   0.00000     -0.301140E-02
     22516 MEMB     182      OYPE     C25      CTL2    -0.180000       12.0110           0   0.00000     -0.301140E-02
     22517 MEMB     182      OYPE     H5R      HAL2     0.900000E-01   1.00800           0   0.00000     -0.301140E-02
     22518 MEMB     182      OYPE     H5S      HAL2     0.900000E-01   1.00800           0   0.00000     -0.301140E-02
     22519 MEMB     182      OYPE     C26      CTL2    -0.180000       12.0110           0   0.00000     -0.301140E-02
     22520 MEMB     182      OYPE     H6R      HAL2     0.900000E-01   1.00800           0   0.00000     -0.301140E-02
     22521 MEMB     182      OYPE     H6S      HAL2     0.900000E-01   1.00800           0   0.00000     -0.301140E-02
     22522 MEMB     182      OYPE     C27      CTL2    -0.180000       12.0110           0   0.00000     -0.301140E-02
     22523 MEMB     182      OYPE     H7R      HAL2     0.900000E-01   1.00800           0   0.00000     -0.301140E-02
     22524 MEMB     182      OYPE     H7S      HAL2     0.900000E-01   1.00800           0   0.00000     -0.301140E-02
     22525 MEMB     182      OYPE     C28      CTL2    -0.180000       12.0110           0   0.00000     -0.301140E-02
     22526 MEMB     182      OYPE     H8R      HAL2     0.900000E-01   1.00800           0   0.00000     -0.301140E-02
     22527 MEMB     182      OYPE     H8S      HAL2     0.900000E-01   1.00800           0   0.00000     -0.301140E-02
     22528 MEMB     182      OYPE     C29      CEL1    -0.150000       12.0110           0   0.00000     -0.301140E-02
     22529 MEMB     182      OYPE     H9R      HEL1     0.150000       1.00800           0   0.00000     -0.301140E-02
     22530 MEMB     182      OYPE     C210     CEL1    -0.150000       12.0110           0   0.00000     -0.301140E-02
     22531 MEMB     182      OYPE     H10R     HEL1     0.150000       1.00800           0   0.00000     -0.301140E-02
     22532 MEMB     182      OYPE     C211     CTL2    -0.180000       12.0110           0   0.00000     -0.301140E-02
     22533 MEMB     182      OYPE     H11R     HAL2     0.900000E-01   1.00800           0   0.00000     -0.301140E-02
     22534 MEMB     182      OYPE     H11S     HAL2     0.900000E-01   1.00800           0   0.00000     -0.301140E-02
     22535 MEMB     182      OYPE     C212     CTL2    -0.180000       12.0110           0   0.00000     -0.301140E-02
     22536 MEMB     182      OYPE     H12R     HAL2     0.900000E-01   1.00800           0   0.00000     -0.301140E-02
     22537 MEMB     182      OYPE     H12S     HAL2     0.900000E-01   1.00800           0   0.00000     -0.301140E-02
     22538 MEMB     182      OYPE     C213     CTL2    -0.180000       12.0110           0   0.00000     -0.301140E-02
     22539 MEMB     182      OYPE     H13R     HAL2     0.900000E-01   1.00800           0   0.00000     -0.301140E-02
     22540 MEMB     182      OYPE     H13S     HAL2     0.900000E-01   1.00800           0   0.00000     -0.301140E-02
     22541 MEMB     182      OYPE     C214     CTL2    -0.180000       12.0110           0   0.00000     -0.301140E-02
     22542 MEMB     182      OYPE     H14R     HAL2     0.900000E-01   1.00800           0   0.00000     -0.301140E-02
     22543 MEMB     182      OYPE     H14S     HAL2     0.900000E-01   1.00800           0   0.00000     -0.301140E-02
     22544 MEMB     182      OYPE     C215     CTL2    -0.180000       12.0110           0   0.00000     -0.301140E-02
     22545 MEMB     182      OYPE     H15R     HAL2     0.900000E-01   1.00800           0   0.00000     -0.301140E-02
     22546 MEMB     182      OYPE     H15S     HAL2     0.900000E-01   1.00800           0   0.00000     -0.301140E-02
     22547 MEMB     182      OYPE     C216     CTL3    -0.270000       12.0110           0   0.00000     -0.301140E-02
     22548 MEMB     182      OYPE     H16R     HAL3     0.900000E-01   1.00800           0   0.00000     -0.301140E-02
     22549 MEMB     182      OYPE     H16S     HAL3     0.900000E-01   1.00800           0   0.00000     -0.301140E-02
     22550 MEMB     182      OYPE     H16T     HAL3     0.900000E-01   1.00800           0   0.00000     -0.301140E-02
     22551 MEMB     182      OYPE     C33      CTL2    -0.180000       12.0110           0   0.00000     -0.301140E-02
     22552 MEMB     182      OYPE     H3X      HAL2     0.900000E-01   1.00800           0   0.00000     -0.301140E-02
     22553 MEMB     182      OYPE     H3Y      HAL2     0.900000E-01   1.00800           0   0.00000     -0.301140E-02
     22554 MEMB     182      OYPE     C34      CTL2    -0.180000       12.0110           0   0.00000     -0.301140E-02
     22555 MEMB     182      OYPE     H4X      HAL2     0.900000E-01   1.00800           0   0.00000     -0.301140E-02
     22556 MEMB     182      OYPE     H4Y      HAL2     0.900000E-01   1.00800           0   0.00000     -0.301140E-02
     22557 MEMB     182      OYPE     C35      CTL2    -0.180000       12.0110           0   0.00000     -0.301140E-02
     22558 MEMB     182      OYPE     H5X      HAL2     0.900000E-01   1.00800           0   0.00000     -0.301140E-02
     22559 MEMB     182      OYPE     H5Y      HAL2     0.900000E-01   1.00800           0   0.00000     -0.301140E-02
     22560 MEMB     182      OYPE     C36      CTL2    -0.180000       12.0110           0   0.00000     -0.301140E-02
     22561 MEMB     182      OYPE     H6X      HAL2     0.900000E-01   1.00800           0   0.00000     -0.301140E-02
     22562 MEMB     182      OYPE     H6Y      HAL2     0.900000E-01   1.00800           0   0.00000     -0.301140E-02
     22563 MEMB     182      OYPE     C37      CTL2    -0.180000       12.0110           0   0.00000     -0.301140E-02
     22564 MEMB     182      OYPE     H7X      HAL2     0.900000E-01   1.00800           0   0.00000     -0.301140E-02
     22565 MEMB     182      OYPE     H7Y      HAL2     0.900000E-01   1.00800           0   0.00000     -0.301140E-02
     22566 MEMB     182      OYPE     C38      CTL2    -0.180000       12.0110           0   0.00000     -0.301140E-02
     22567 MEMB     182      OYPE     H8X      HAL2     0.900000E-01   1.00800           0   0.00000     -0.301140E-02
     22568 MEMB     182      OYPE     H8Y      HAL2     0.900000E-01   1.00800           0   0.00000     -0.301140E-02
     22569 MEMB     182      OYPE     C39      CEL1    -0.150000       12.0110           0   0.00000     -0.301140E-02
     22570 MEMB     182      OYPE     H9X      HEL1     0.150000       1.00800           0   0.00000     -0.301140E-02
     22571 MEMB     182      OYPE     C310     CEL1    -0.150000       12.0110           0   0.00000     -0.301140E-02
     22572 MEMB     182      OYPE     H10X     HEL1     0.150000       1.00800           0   0.00000     -0.301140E-02
     22573 MEMB     182      OYPE     C311     CTL2    -0.180000       12.0110           0   0.00000     -0.301140E-02
     22574 MEMB     182      OYPE     H11X     HAL2     0.900000E-01   1.00800           0   0.00000     -0.301140E-02
     22575 MEMB     182      OYPE     H11Y     HAL2     0.900000E-01   1.00800           0   0.00000     -0.301140E-02
     22576 MEMB     182      OYPE     C312     CTL2    -0.180000       12.0110           0   0.00000     -0.301140E-02
     22577 MEMB     182      OYPE     H12X     HAL2     0.900000E-01   1.00800           0   0.00000     -0.301140E-02
     22578 MEMB     182      OYPE     H12Y     HAL2     0.900000E-01   1.00800           0   0.00000     -0.301140E-02
     22579 MEMB     182      OYPE     C313     CTL2    -0.180000       12.0110           0   0.00000     -0.301140E-02
     22580 MEMB     182      OYPE     H13X     HAL2     0.900000E-01   1.00800           0   0.00000     -0.301140E-02
     22581 MEMB     182      OYPE     H13Y     HAL2     0.900000E-01   1.00800           0   0.00000     -0.301140E-02
     22582 MEMB     182      OYPE     C314     CTL2    -0.180000       12.0110           0   0.00000     -0.301140E-02
     22583 MEMB     182      OYPE     H14X     HAL2     0.900000E-01   1.00800           0   0.00000     -0.301140E-02
     22584 MEMB     182      OYPE     H14Y     HAL2     0.900000E-01   1.00800           0   0.00000     -0.301140E-02
     22585 MEMB     182      OYPE     C315     CTL2    -0.180000       12.0110           0   0.00000     -0.301140E-02
     22586 MEMB     182      OYPE     H15X     HAL2     0.900000E-01   1.00800           0   0.00000     -0.301140E-02
     22587 MEMB     182      OYPE     H15Y     HAL2     0.900000E-01   1.00800           0   0.00000     -0.301140E-02
     22588 MEMB     182      OYPE     C316     CTL2    -0.180000       12.0110           0   0.00000     -0.301140E-02
     22589 MEMB     182      OYPE     H16X     HAL2     0.900000E-01   1.00800           0   0.00000     -0.301140E-02
     22590 MEMB     182      OYPE     H16Y     HAL2     0.900000E-01   1.00800           0   0.00000     -0.301140E-02
     22591 MEMB     182      OYPE     C317     CTL2    -0.180000       12.0110           0   0.00000     -0.301140E-02
     22592 MEMB     182      OYPE     H17X     HAL2     0.900000E-01   1.00800           0   0.00000     -0.301140E-02
     22593 MEMB     182      OYPE     H17Y     HAL2     0.900000E-01   1.00800           0   0.00000     -0.301140E-02
     22594 MEMB     182      OYPE     C318     CTL3    -0.270000       12.0110           0   0.00000     -0.301140E-02
     22595 MEMB     182      OYPE     H18X     HAL3     0.900000E-01   1.00800           0   0.00000     -0.301140E-02
     22596 MEMB     182      OYPE     H18Y     HAL3     0.900000E-01   1.00800           0   0.00000     -0.301140E-02
     22597 MEMB     182      OYPE     H18Z     HAL3     0.900000E-01   1.00800           0   0.00000     -0.301140E-02
     22598 MEMB     183      PMPE     N        NH3L    -0.300000       14.0070           0   0.00000     -0.301140E-02
     22599 MEMB     183      PMPE     HN1      HCL      0.330000       1.00800           0   0.00000     -0.301140E-02
     22600 MEMB     183      PMPE     HN2      HCL      0.330000       1.00800           0   0.00000     -0.301140E-02
     22601 MEMB     183      PMPE     HN3      HCL      0.330000       1.00800           0   0.00000     -0.301140E-02
     22602 MEMB     183      PMPE     C12      CTL2     0.130000       12.0110           0   0.00000     -0.301140E-02
     22603 MEMB     183      PMPE     H12A     HAL2     0.900000E-01   1.00800           0   0.00000     -0.301140E-02
     22604 MEMB     183      PMPE     H12B     HAL2     0.900000E-01   1.00800           0   0.00000     -0.301140E-02
     22605 MEMB     183      PMPE     C11      CTL2    -0.800000E-01   12.0110           0   0.00000     -0.301140E-02
     22606 MEMB     183      PMPE     H11A     HAL2     0.900000E-01   1.00800           0   0.00000     -0.301140E-02
     22607 MEMB     183      PMPE     H11B     HAL2     0.900000E-01   1.00800           0   0.00000     -0.301140E-02
     22608 MEMB     183      PMPE     P        PL        1.50000       30.9740           0   0.00000     -0.301140E-02
     22609 MEMB     183      PMPE     O13      O2L     -0.780000       15.9994           0   0.00000     -0.301140E-02
     22610 MEMB     183      PMPE     O14      O2L     -0.780000       15.9994           0   0.00000     -0.301140E-02
     22611 MEMB     183      PMPE     O11      OSLP    -0.570000       15.9994           0   0.00000     -0.301140E-02
     22612 MEMB     183      PMPE     O12      OSLP    -0.570000       15.9994           0   0.00000     -0.301140E-02
     22613 MEMB     183      PMPE     C1       CTL2    -0.800000E-01   12.0110           0   0.00000     -0.301140E-02
     22614 MEMB     183      PMPE     HA       HAL2     0.900000E-01   1.00800           0   0.00000     -0.301140E-02
     22615 MEMB     183      PMPE     HB       HAL2     0.900000E-01   1.00800           0   0.00000     -0.301140E-02
     22616 MEMB     183      PMPE     C2       CTL1     0.170000       12.0110           0   0.00000     -0.301140E-02
     22617 MEMB     183      PMPE     HS       HAL1     0.900000E-01   1.00800           0   0.00000     -0.301140E-02
     22618 MEMB     183      PMPE     O21      OSL     -0.490000       15.9994           0   0.00000     -0.301140E-02
     22619 MEMB     183      PMPE     C21      CL       0.900000       12.0110           0   0.00000     -0.301140E-02
     22620 MEMB     183      PMPE     O22      OBL     -0.630000       15.9994           0   0.00000     -0.301140E-02
     22621 MEMB     183      PMPE     C22      CTL2    -0.220000       12.0110           0   0.00000     -0.301140E-02
     22622 MEMB     183      PMPE     H2R      HAL2     0.900000E-01   1.00800           0   0.00000     -0.301140E-02
     22623 MEMB     183      PMPE     H2S      HAL2     0.900000E-01   1.00800           0   0.00000     -0.301140E-02
     22624 MEMB     183      PMPE     C3       CTL2     0.800000E-01   12.0110           0   0.00000     -0.301140E-02
     22625 MEMB     183      PMPE     HX       HAL2     0.900000E-01   1.00800           0   0.00000     -0.301140E-02
     22626 MEMB     183      PMPE     HY       HAL2     0.900000E-01   1.00800           0   0.00000     -0.301140E-02
     22627 MEMB     183      PMPE     O31      OSL     -0.490000       15.9994           0   0.00000     -0.301140E-02
     22628 MEMB     183      PMPE     C31      CL       0.900000       12.0110           0   0.00000     -0.301140E-02
     22629 MEMB     183      PMPE     O32      OBL     -0.630000       15.9994           0   0.00000     -0.301140E-02
     22630 MEMB     183      PMPE     C32      CTL2    -0.220000       12.0110           0   0.00000     -0.301140E-02
     22631 MEMB     183      PMPE     H2X      HAL2     0.900000E-01   1.00800           0   0.00000     -0.301140E-02
     22632 MEMB     183      PMPE     H2Y      HAL2     0.900000E-01   1.00800           0   0.00000     -0.301140E-02
     22633 MEMB     183      PMPE     C23      CTL2    -0.180000       12.0110           0   0.00000     -0.301140E-02
     22634 MEMB     183      PMPE     H3R      HAL2     0.900000E-01   1.00800           0   0.00000     -0.301140E-02
     22635 MEMB     183      PMPE     H3S      HAL2     0.900000E-01   1.00800           0   0.00000     -0.301140E-02
     22636 MEMB     183      PMPE     C24      CTL2    -0.180000       12.0110           0   0.00000     -0.301140E-02
     22637 MEMB     183      PMPE     H4R      HAL2     0.900000E-01   1.00800           0   0.00000     -0.301140E-02
     22638 MEMB     183      PMPE     H4S      HAL2     0.900000E-01   1.00800           0   0.00000     -0.301140E-02
     22639 MEMB     183      PMPE     C25      CTL2    -0.180000       12.0110           0   0.00000     -0.301140E-02
     22640 MEMB     183      PMPE     H5R      HAL2     0.900000E-01   1.00800           0   0.00000     -0.301140E-02
     22641 MEMB     183      PMPE     H5S      HAL2     0.900000E-01   1.00800           0   0.00000     -0.301140E-02
     22642 MEMB     183      PMPE     C26      CTL2    -0.180000       12.0110           0   0.00000     -0.301140E-02
     22643 MEMB     183      PMPE     H6R      HAL2     0.900000E-01   1.00800           0   0.00000     -0.301140E-02
     22644 MEMB     183      PMPE     H6S      HAL2     0.900000E-01   1.00800           0   0.00000     -0.301140E-02
     22645 MEMB     183      PMPE     C27      CTL2    -0.180000       12.0110           0   0.00000     -0.301140E-02
     22646 MEMB     183      PMPE     H7R      HAL2     0.900000E-01   1.00800           0   0.00000     -0.301140E-02
     22647 MEMB     183      PMPE     H7S      HAL2     0.900000E-01   1.00800           0   0.00000     -0.301140E-02
     22648 MEMB     183      PMPE     C28      CTL2    -0.180000       12.0110           0   0.00000     -0.301140E-02
     22649 MEMB     183      PMPE     H8R      HAL2     0.900000E-01   1.00800           0   0.00000     -0.301140E-02
     22650 MEMB     183      PMPE     H8S      HAL2     0.900000E-01   1.00800           0   0.00000     -0.301140E-02
     22651 MEMB     183      PMPE     C29      CG3RC1  -0.900000E-01   12.0110           0   0.00000     -0.301140E-02
     22652 MEMB     183      PMPE     H9R      HGA1     0.900000E-01   1.00800           0   0.00000     -0.301140E-02
     22653 MEMB     183      PMPE     C217     CG3C31  -0.180000       12.0110           0   0.00000     -0.301140E-02
     22654 MEMB     183      PMPE     H17R     HGA2     0.900000E-01   1.00800           0   0.00000     -0.301140E-02
     22655 MEMB     183      PMPE     H17S     HGA2     0.900000E-01   1.00800           0   0.00000     -0.301140E-02
     22656 MEMB     183      PMPE     C210     CG3RC1  -0.900000E-01   12.0110           0   0.00000     -0.301140E-02
     22657 MEMB     183      PMPE     H10R     HGA1     0.900000E-01   1.00800           0   0.00000     -0.301140E-02
     22658 MEMB     183      PMPE     C211     CTL2    -0.180000       12.0110           0   0.00000     -0.301140E-02
     22659 MEMB     183      PMPE     H11R     HAL2     0.900000E-01   1.00800           0   0.00000     -0.301140E-02
     22660 MEMB     183      PMPE     H11S     HAL2     0.900000E-01   1.00800           0   0.00000     -0.301140E-02
     22661 MEMB     183      PMPE     C212     CTL2    -0.180000       12.0110           0   0.00000     -0.301140E-02
     22662 MEMB     183      PMPE     H12R     HAL2     0.900000E-01   1.00800           0   0.00000     -0.301140E-02
     22663 MEMB     183      PMPE     H12S     HAL2     0.900000E-01   1.00800           0   0.00000     -0.301140E-02
     22664 MEMB     183      PMPE     C213     CTL2    -0.180000       12.0110           0   0.00000     -0.301140E-02
     22665 MEMB     183      PMPE     H13R     HAL2     0.900000E-01   1.00800           0   0.00000     -0.301140E-02
     22666 MEMB     183      PMPE     H13S     HAL2     0.900000E-01   1.00800           0   0.00000     -0.301140E-02
     22667 MEMB     183      PMPE     C214     CTL2    -0.180000       12.0110           0   0.00000     -0.301140E-02
     22668 MEMB     183      PMPE     H14R     HAL2     0.900000E-01   1.00800           0   0.00000     -0.301140E-02
     22669 MEMB     183      PMPE     H14S     HAL2     0.900000E-01   1.00800           0   0.00000     -0.301140E-02
     22670 MEMB     183      PMPE     C215     CTL2    -0.180000       12.0110           0   0.00000     -0.301140E-02
     22671 MEMB     183      PMPE     H15R     HAL2     0.900000E-01   1.00800           0   0.00000     -0.301140E-02
     22672 MEMB     183      PMPE     H15S     HAL2     0.900000E-01   1.00800           0   0.00000     -0.301140E-02
     22673 MEMB     183      PMPE     C216     CTL3    -0.270000       12.0110           0   0.00000     -0.301140E-02
     22674 MEMB     183      PMPE     H16R     HAL3     0.900000E-01   1.00800           0   0.00000     -0.301140E-02
     22675 MEMB     183      PMPE     H16S     HAL3     0.900000E-01   1.00800           0   0.00000     -0.301140E-02
     22676 MEMB     183      PMPE     H16T     HAL3     0.900000E-01   1.00800           0   0.00000     -0.301140E-02
     22677 MEMB     183      PMPE     C33      CTL2    -0.180000       12.0110           0   0.00000     -0.301140E-02
     22678 MEMB     183      PMPE     H3X      HAL2     0.900000E-01   1.00800           0   0.00000     -0.301140E-02
     22679 MEMB     183      PMPE     H3Y      HAL2     0.900000E-01   1.00800           0   0.00000     -0.301140E-02
     22680 MEMB     183      PMPE     C34      CTL2    -0.180000       12.0110           0   0.00000     -0.301140E-02
     22681 MEMB     183      PMPE     H4X      HAL2     0.900000E-01   1.00800           0   0.00000     -0.301140E-02
     22682 MEMB     183      PMPE     H4Y      HAL2     0.900000E-01   1.00800           0   0.00000     -0.301140E-02
     22683 MEMB     183      PMPE     C35      CTL2    -0.180000       12.0110           0   0.00000     -0.301140E-02
     22684 MEMB     183      PMPE     H5X      HAL2     0.900000E-01   1.00800           0   0.00000     -0.301140E-02
     22685 MEMB     183      PMPE     H5Y      HAL2     0.900000E-01   1.00800           0   0.00000     -0.301140E-02
     22686 MEMB     183      PMPE     C36      CTL2    -0.180000       12.0110           0   0.00000     -0.301140E-02
     22687 MEMB     183      PMPE     H6X      HAL2     0.900000E-01   1.00800           0   0.00000     -0.301140E-02
     22688 MEMB     183      PMPE     H6Y      HAL2     0.900000E-01   1.00800           0   0.00000     -0.301140E-02
     22689 MEMB     183      PMPE     C37      CTL2    -0.180000       12.0110           0   0.00000     -0.301140E-02
     22690 MEMB     183      PMPE     H7X      HAL2     0.900000E-01   1.00800           0   0.00000     -0.301140E-02
     22691 MEMB     183      PMPE     H7Y      HAL2     0.900000E-01   1.00800           0   0.00000     -0.301140E-02
     22692 MEMB     183      PMPE     C38      CTL2    -0.180000       12.0110           0   0.00000     -0.301140E-02
     22693 MEMB     183      PMPE     H8X      HAL2     0.900000E-01   1.00800           0   0.00000     -0.301140E-02
     22694 MEMB     183      PMPE     H8Y      HAL2     0.900000E-01   1.00800           0   0.00000     -0.301140E-02
     22695 MEMB     183      PMPE     C39      CTL2    -0.180000       12.0110           0   0.00000     -0.301140E-02
     22696 MEMB     183      PMPE     H9X      HAL2     0.900000E-01   1.00800           0   0.00000     -0.301140E-02
     22697 MEMB     183      PMPE     H9Y      HAL2     0.900000E-01   1.00800           0   0.00000     -0.301140E-02
     22698 MEMB     183      PMPE     C310     CTL2    -0.180000       12.0110           0   0.00000     -0.301140E-02
     22699 MEMB     183      PMPE     H10X     HAL2     0.900000E-01   1.00800           0   0.00000     -0.301140E-02
     22700 MEMB     183      PMPE     H10Y     HAL2     0.900000E-01   1.00800           0   0.00000     -0.301140E-02
     22701 MEMB     183      PMPE     C311     CTL2    -0.180000       12.0110           0   0.00000     -0.301140E-02
     22702 MEMB     183      PMPE     H11X     HAL2     0.900000E-01   1.00800           0   0.00000     -0.301140E-02
     22703 MEMB     183      PMPE     H11Y     HAL2     0.900000E-01   1.00800           0   0.00000     -0.301140E-02
     22704 MEMB     183      PMPE     C312     CTL2    -0.180000       12.0110           0   0.00000     -0.301140E-02
     22705 MEMB     183      PMPE     H12X     HAL2     0.900000E-01   1.00800           0   0.00000     -0.301140E-02
     22706 MEMB     183      PMPE     H12Y     HAL2     0.900000E-01   1.00800           0   0.00000     -0.301140E-02
     22707 MEMB     183      PMPE     C313     CTL2    -0.180000       12.0110           0   0.00000     -0.301140E-02
     22708 MEMB     183      PMPE     H13X     HAL2     0.900000E-01   1.00800           0   0.00000     -0.301140E-02
     22709 MEMB     183      PMPE     H13Y     HAL2     0.900000E-01   1.00800           0   0.00000     -0.301140E-02
     22710 MEMB     183      PMPE     C314     CTL2    -0.180000       12.0110           0   0.00000     -0.301140E-02
     22711 MEMB     183      PMPE     H14X     HAL2     0.900000E-01   1.00800           0   0.00000     -0.301140E-02
     22712 MEMB     183      PMPE     H14Y     HAL2     0.900000E-01   1.00800           0   0.00000     -0.301140E-02
     22713 MEMB     183      PMPE     C315     CTL2    -0.180000       12.0110           0   0.00000     -0.301140E-02
     22714 MEMB     183      PMPE     H15X     HAL2     0.900000E-01   1.00800           0   0.00000     -0.301140E-02
     22715 MEMB     183      PMPE     H15Y     HAL2     0.900000E-01   1.00800           0   0.00000     -0.301140E-02
     22716 MEMB     183      PMPE     C316     CTL3    -0.270000       12.0110           0   0.00000     -0.301140E-02
     22717 MEMB     183      PMPE     H16X     HAL3     0.900000E-01   1.00800           0   0.00000     -0.301140E-02
     22718 MEMB     183      PMPE     H16Y     HAL3     0.900000E-01   1.00800           0   0.00000     -0.301140E-02
     22719 MEMB     183      PMPE     H16Z     HAL3     0.900000E-01   1.00800           0   0.00000     -0.301140E-02
     22720 MEMB     184      QMPE     N        NH3L    -0.300000       14.0070           0   0.00000     -0.301140E-02
     22721 MEMB     184      QMPE     HN1      HCL      0.330000       1.00800           0   0.00000     -0.301140E-02
     22722 MEMB     184      QMPE     HN2      HCL      0.330000       1.00800           0   0.00000     -0.301140E-02
     22723 MEMB     184      QMPE     HN3      HCL      0.330000       1.00800           0   0.00000     -0.301140E-02
     22724 MEMB     184      QMPE     C12      CTL2     0.130000       12.0110           0   0.00000     -0.301140E-02
     22725 MEMB     184      QMPE     H12A     HAL2     0.900000E-01   1.00800           0   0.00000     -0.301140E-02
     22726 MEMB     184      QMPE     H12B     HAL2     0.900000E-01   1.00800           0   0.00000     -0.301140E-02
     22727 MEMB     184      QMPE     C11      CTL2    -0.800000E-01   12.0110           0   0.00000     -0.301140E-02
     22728 MEMB     184      QMPE     H11A     HAL2     0.900000E-01   1.00800           0   0.00000     -0.301140E-02
     22729 MEMB     184      QMPE     H11B     HAL2     0.900000E-01   1.00800           0   0.00000     -0.301140E-02
     22730 MEMB     184      QMPE     P        PL        1.50000       30.9740           0   0.00000     -0.301140E-02
     22731 MEMB     184      QMPE     O13      O2L     -0.780000       15.9994           0   0.00000     -0.301140E-02
     22732 MEMB     184      QMPE     O14      O2L     -0.780000       15.9994           0   0.00000     -0.301140E-02
     22733 MEMB     184      QMPE     O11      OSLP    -0.570000       15.9994           0   0.00000     -0.301140E-02
     22734 MEMB     184      QMPE     O12      OSLP    -0.570000       15.9994           0   0.00000     -0.301140E-02
     22735 MEMB     184      QMPE     C1       CTL2    -0.800000E-01   12.0110           0   0.00000     -0.301140E-02
     22736 MEMB     184      QMPE     HA       HAL2     0.900000E-01   1.00800           0   0.00000     -0.301140E-02
     22737 MEMB     184      QMPE     HB       HAL2     0.900000E-01   1.00800           0   0.00000     -0.301140E-02
     22738 MEMB     184      QMPE     C2       CTL1     0.170000       12.0110           0   0.00000     -0.301140E-02
     22739 MEMB     184      QMPE     HS       HAL1     0.900000E-01   1.00800           0   0.00000     -0.301140E-02
     22740 MEMB     184      QMPE     O21      OSL     -0.490000       15.9994           0   0.00000     -0.301140E-02
     22741 MEMB     184      QMPE     C21      CL       0.900000       12.0110           0   0.00000     -0.301140E-02
     22742 MEMB     184      QMPE     O22      OBL     -0.630000       15.9994           0   0.00000     -0.301140E-02
     22743 MEMB     184      QMPE     C22      CTL2    -0.220000       12.0110           0   0.00000     -0.301140E-02
     22744 MEMB     184      QMPE     H2R      HAL2     0.900000E-01   1.00800           0   0.00000     -0.301140E-02
     22745 MEMB     184      QMPE     H2S      HAL2     0.900000E-01   1.00800           0   0.00000     -0.301140E-02
     22746 MEMB     184      QMPE     C3       CTL2     0.800000E-01   12.0110           0   0.00000     -0.301140E-02
     22747 MEMB     184      QMPE     HX       HAL2     0.900000E-01   1.00800           0   0.00000     -0.301140E-02
     22748 MEMB     184      QMPE     HY       HAL2     0.900000E-01   1.00800           0   0.00000     -0.301140E-02
     22749 MEMB     184      QMPE     O31      OSL     -0.490000       15.9994           0   0.00000     -0.301140E-02
     22750 MEMB     184      QMPE     C31      CL       0.900000       12.0110           0   0.00000     -0.301140E-02
     22751 MEMB     184      QMPE     O32      OBL     -0.630000       15.9994           0   0.00000     -0.301140E-02
     22752 MEMB     184      QMPE     C32      CTL2    -0.220000       12.0110           0   0.00000     -0.301140E-02
     22753 MEMB     184      QMPE     H2X      HAL2     0.900000E-01   1.00800           0   0.00000     -0.301140E-02
     22754 MEMB     184      QMPE     H2Y      HAL2     0.900000E-01   1.00800           0   0.00000     -0.301140E-02
     22755 MEMB     184      QMPE     C23      CTL2    -0.180000       12.0110           0   0.00000     -0.301140E-02
     22756 MEMB     184      QMPE     H3R      HAL2     0.900000E-01   1.00800           0   0.00000     -0.301140E-02
     22757 MEMB     184      QMPE     H3S      HAL2     0.900000E-01   1.00800           0   0.00000     -0.301140E-02
     22758 MEMB     184      QMPE     C24      CTL2    -0.180000       12.0110           0   0.00000     -0.301140E-02
     22759 MEMB     184      QMPE     H4R      HAL2     0.900000E-01   1.00800           0   0.00000     -0.301140E-02
     22760 MEMB     184      QMPE     H4S      HAL2     0.900000E-01   1.00800           0   0.00000     -0.301140E-02
     22761 MEMB     184      QMPE     C25      CTL2    -0.180000       12.0110           0   0.00000     -0.301140E-02
     22762 MEMB     184      QMPE     H5R      HAL2     0.900000E-01   1.00800           0   0.00000     -0.301140E-02
     22763 MEMB     184      QMPE     H5S      HAL2     0.900000E-01   1.00800           0   0.00000     -0.301140E-02
     22764 MEMB     184      QMPE     C26      CTL2    -0.180000       12.0110           0   0.00000     -0.301140E-02
     22765 MEMB     184      QMPE     H6R      HAL2     0.900000E-01   1.00800           0   0.00000     -0.301140E-02
     22766 MEMB     184      QMPE     H6S      HAL2     0.900000E-01   1.00800           0   0.00000     -0.301140E-02
     22767 MEMB     184      QMPE     C27      CTL2    -0.180000       12.0110           0   0.00000     -0.301140E-02
     22768 MEMB     184      QMPE     H7R      HAL2     0.900000E-01   1.00800           0   0.00000     -0.301140E-02
     22769 MEMB     184      QMPE     H7S      HAL2     0.900000E-01   1.00800           0   0.00000     -0.301140E-02
     22770 MEMB     184      QMPE     C28      CTL2    -0.180000       12.0110           0   0.00000     -0.301140E-02
     22771 MEMB     184      QMPE     H8R      HAL2     0.900000E-01   1.00800           0   0.00000     -0.301140E-02
     22772 MEMB     184      QMPE     H8S      HAL2     0.900000E-01   1.00800           0   0.00000     -0.301140E-02
     22773 MEMB     184      QMPE     C29      CG3RC1  -0.900000E-01   12.0110           0   0.00000     -0.301140E-02
     22774 MEMB     184      QMPE     H9R      HGA1     0.900000E-01   1.00800           0   0.00000     -0.301140E-02
     22775 MEMB     184      QMPE     C217     CG3C31  -0.180000       12.0110           0   0.00000     -0.301140E-02
     22776 MEMB     184      QMPE     H17R     HGA2     0.900000E-01   1.00800           0   0.00000     -0.301140E-02
     22777 MEMB     184      QMPE     H17S     HGA2     0.900000E-01   1.00800           0   0.00000     -0.301140E-02
     22778 MEMB     184      QMPE     C210     CG3RC1  -0.900000E-01   12.0110           0   0.00000     -0.301140E-02
     22779 MEMB     184      QMPE     H10R     HGA1     0.900000E-01   1.00800           0   0.00000     -0.301140E-02
     22780 MEMB     184      QMPE     C211     CTL2    -0.180000       12.0110           0   0.00000     -0.301140E-02
     22781 MEMB     184      QMPE     H11R     HAL2     0.900000E-01   1.00800           0   0.00000     -0.301140E-02
     22782 MEMB     184      QMPE     H11S     HAL2     0.900000E-01   1.00800           0   0.00000     -0.301140E-02
     22783 MEMB     184      QMPE     C212     CTL2    -0.180000       12.0110           0   0.00000     -0.301140E-02
     22784 MEMB     184      QMPE     H12R     HAL2     0.900000E-01   1.00800           0   0.00000     -0.301140E-02
     22785 MEMB     184      QMPE     H12S     HAL2     0.900000E-01   1.00800           0   0.00000     -0.301140E-02
     22786 MEMB     184      QMPE     C213     CTL2    -0.180000       12.0110           0   0.00000     -0.301140E-02
     22787 MEMB     184      QMPE     H13R     HAL2     0.900000E-01   1.00800           0   0.00000     -0.301140E-02
     22788 MEMB     184      QMPE     H13S     HAL2     0.900000E-01   1.00800           0   0.00000     -0.301140E-02
     22789 MEMB     184      QMPE     C214     CTL2    -0.180000       12.0110           0   0.00000     -0.301140E-02
     22790 MEMB     184      QMPE     H14R     HAL2     0.900000E-01   1.00800           0   0.00000     -0.301140E-02
     22791 MEMB     184      QMPE     H14S     HAL2     0.900000E-01   1.00800           0   0.00000     -0.301140E-02
     22792 MEMB     184      QMPE     C215     CTL2    -0.180000       12.0110           0   0.00000     -0.301140E-02
     22793 MEMB     184      QMPE     H15R     HAL2     0.900000E-01   1.00800           0   0.00000     -0.301140E-02
     22794 MEMB     184      QMPE     H15S     HAL2     0.900000E-01   1.00800           0   0.00000     -0.301140E-02
     22795 MEMB     184      QMPE     C216     CTL3    -0.270000       12.0110           0   0.00000     -0.301140E-02
     22796 MEMB     184      QMPE     H16R     HAL3     0.900000E-01   1.00800           0   0.00000     -0.301140E-02
     22797 MEMB     184      QMPE     H16S     HAL3     0.900000E-01   1.00800           0   0.00000     -0.301140E-02
     22798 MEMB     184      QMPE     H16T     HAL3     0.900000E-01   1.00800           0   0.00000     -0.301140E-02
     22799 MEMB     184      QMPE     C33      CTL2    -0.180000       12.0110           0   0.00000     -0.301140E-02
     22800 MEMB     184      QMPE     H3X      HAL2     0.900000E-01   1.00800           0   0.00000     -0.301140E-02
     22801 MEMB     184      QMPE     H3Y      HAL2     0.900000E-01   1.00800           0   0.00000     -0.301140E-02
     22802 MEMB     184      QMPE     C34      CTL2    -0.180000       12.0110           0   0.00000     -0.301140E-02
     22803 MEMB     184      QMPE     H4X      HAL2     0.900000E-01   1.00800           0   0.00000     -0.301140E-02
     22804 MEMB     184      QMPE     H4Y      HAL2     0.900000E-01   1.00800           0   0.00000     -0.301140E-02
     22805 MEMB     184      QMPE     C35      CTL2    -0.180000       12.0110           0   0.00000     -0.301140E-02
     22806 MEMB     184      QMPE     H5X      HAL2     0.900000E-01   1.00800           0   0.00000     -0.301140E-02
     22807 MEMB     184      QMPE     H5Y      HAL2     0.900000E-01   1.00800           0   0.00000     -0.301140E-02
     22808 MEMB     184      QMPE     C36      CTL2    -0.180000       12.0110           0   0.00000     -0.301140E-02
     22809 MEMB     184      QMPE     H6X      HAL2     0.900000E-01   1.00800           0   0.00000     -0.301140E-02
     22810 MEMB     184      QMPE     H6Y      HAL2     0.900000E-01   1.00800           0   0.00000     -0.301140E-02
     22811 MEMB     184      QMPE     C37      CTL2    -0.180000       12.0110           0   0.00000     -0.301140E-02
     22812 MEMB     184      QMPE     H7X      HAL2     0.900000E-01   1.00800           0   0.00000     -0.301140E-02
     22813 MEMB     184      QMPE     H7Y      HAL2     0.900000E-01   1.00800           0   0.00000     -0.301140E-02
     22814 MEMB     184      QMPE     C38      CTL2    -0.180000       12.0110           0   0.00000     -0.301140E-02
     22815 MEMB     184      QMPE     H8X      HAL2     0.900000E-01   1.00800           0   0.00000     -0.301140E-02
     22816 MEMB     184      QMPE     H8Y      HAL2     0.900000E-01   1.00800           0   0.00000     -0.301140E-02
     22817 MEMB     184      QMPE     C39      CTL2    -0.180000       12.0110           0   0.00000     -0.301140E-02
     22818 MEMB     184      QMPE     H9X      HAL2     0.900000E-01   1.00800           0   0.00000     -0.301140E-02
     22819 MEMB     184      QMPE     H9Y      HAL2     0.900000E-01   1.00800           0   0.00000     -0.301140E-02
     22820 MEMB     184      QMPE     C310     CTL2    -0.180000       12.0110           0   0.00000     -0.301140E-02
     22821 MEMB     184      QMPE     H10X     HAL2     0.900000E-01   1.00800           0   0.00000     -0.301140E-02
     22822 MEMB     184      QMPE     H10Y     HAL2     0.900000E-01   1.00800           0   0.00000     -0.301140E-02
     22823 MEMB     184      QMPE     C311     CTL2    -0.180000       12.0110           0   0.00000     -0.301140E-02
     22824 MEMB     184      QMPE     H11X     HAL2     0.900000E-01   1.00800           0   0.00000     -0.301140E-02
     22825 MEMB     184      QMPE     H11Y     HAL2     0.900000E-01   1.00800           0   0.00000     -0.301140E-02
     22826 MEMB     184      QMPE     C312     CTL2    -0.180000       12.0110           0   0.00000     -0.301140E-02
     22827 MEMB     184      QMPE     H12X     HAL2     0.900000E-01   1.00800           0   0.00000     -0.301140E-02
     22828 MEMB     184      QMPE     H12Y     HAL2     0.900000E-01   1.00800           0   0.00000     -0.301140E-02
     22829 MEMB     184      QMPE     C313     CTL2    -0.180000       12.0110           0   0.00000     -0.301140E-02
     22830 MEMB     184      QMPE     H13X     HAL2     0.900000E-01   1.00800           0   0.00000     -0.301140E-02
     22831 MEMB     184      QMPE     H13Y     HAL2     0.900000E-01   1.00800           0   0.00000     -0.301140E-02
     22832 MEMB     184      QMPE     C314     CTL2    -0.180000       12.0110           0   0.00000     -0.301140E-02
     22833 MEMB     184      QMPE     H14X     HAL2     0.900000E-01   1.00800           0   0.00000     -0.301140E-02
     22834 MEMB     184      QMPE     H14Y     HAL2     0.900000E-01   1.00800           0   0.00000     -0.301140E-02
     22835 MEMB     184      QMPE     C315     CTL3    -0.270000       12.0110           0   0.00000     -0.301140E-02
     22836 MEMB     184      QMPE     H15X     HAL3     0.900000E-01   1.00800           0   0.00000     -0.301140E-02
     22837 MEMB     184      QMPE     H15Y     HAL3     0.900000E-01   1.00800           0   0.00000     -0.301140E-02
     22838 MEMB     184      QMPE     H15Z     HAL3     0.900000E-01   1.00800           0   0.00000     -0.301140E-02
     22839 MEMB     185      PMPG     C13      CTL2     0.500000E-01   12.0110           0   0.00000     -0.301140E-02
     22840 MEMB     185      PMPG     H13A     HAL2     0.900000E-01   1.00800           0   0.00000     -0.301140E-02
     22841 MEMB     185      PMPG     H13B     HAL2     0.900000E-01   1.00800           0   0.00000     -0.301140E-02
     22842 MEMB     185      PMPG     OC3      OHL     -0.660000       15.9994           0   0.00000     -0.301140E-02
     22843 MEMB     185      PMPG     HO3      HOL      0.430000       1.00800           0   0.00000     -0.301140E-02
     22844 MEMB     185      PMPG     C12      CTL1     0.140000       12.0110           0   0.00000     -0.301140E-02
     22845 MEMB     185      PMPG     H12A     HAL1     0.900000E-01   1.00800           0   0.00000     -0.301140E-02
     22846 MEMB     185      PMPG     OC2      OHL     -0.660000       15.9994           0   0.00000     -0.301140E-02
     22847 MEMB     185      PMPG     HO2      HOL      0.430000       1.00800           0   0.00000     -0.301140E-02
     22848 MEMB     185      PMPG     C11      CTL2    -0.800000E-01   12.0110           0   0.00000     -0.301140E-02
     22849 MEMB     185      PMPG     H11A     HAL2     0.900000E-01   1.00800           0   0.00000     -0.301140E-02
     22850 MEMB     185      PMPG     H11B     HAL2     0.900000E-01   1.00800           0   0.00000     -0.301140E-02
     22851 MEMB     185      PMPG     P        PL        1.50000       30.9740           0   0.00000     -0.301140E-02
     22852 MEMB     185      PMPG     O13      O2L     -0.780000       15.9994           0   0.00000     -0.301140E-02
     22853 MEMB     185      PMPG     O14      O2L     -0.780000       15.9994           0   0.00000     -0.301140E-02
     22854 MEMB     185      PMPG     O11      OSLP    -0.570000       15.9994           0   0.00000     -0.301140E-02
     22855 MEMB     185      PMPG     O12      OSLP    -0.570000       15.9994           0   0.00000     -0.301140E-02
     22856 MEMB     185      PMPG     C1       CTL2    -0.800000E-01   12.0110           0   0.00000     -0.301140E-02
     22857 MEMB     185      PMPG     HA       HAL2     0.900000E-01   1.00800           0   0.00000     -0.301140E-02
     22858 MEMB     185      PMPG     HB       HAL2     0.900000E-01   1.00800           0   0.00000     -0.301140E-02
     22859 MEMB     185      PMPG     C2       CTL1     0.170000       12.0110           0   0.00000     -0.301140E-02
     22860 MEMB     185      PMPG     HS       HAL1     0.900000E-01   1.00800           0   0.00000     -0.301140E-02
     22861 MEMB     185      PMPG     O21      OSL     -0.490000       15.9994           0   0.00000     -0.301140E-02
     22862 MEMB     185      PMPG     C21      CL       0.900000       12.0110           0   0.00000     -0.301140E-02
     22863 MEMB     185      PMPG     O22      OBL     -0.630000       15.9994           0   0.00000     -0.301140E-02
     22864 MEMB     185      PMPG     C22      CTL2    -0.220000       12.0110           0   0.00000     -0.301140E-02
     22865 MEMB     185      PMPG     H2R      HAL2     0.900000E-01   1.00800           0   0.00000     -0.301140E-02
     22866 MEMB     185      PMPG     H2S      HAL2     0.900000E-01   1.00800           0   0.00000     -0.301140E-02
     22867 MEMB     185      PMPG     C3       CTL2     0.800000E-01   12.0110           0   0.00000     -0.301140E-02
     22868 MEMB     185      PMPG     HX       HAL2     0.900000E-01   1.00800           0   0.00000     -0.301140E-02
     22869 MEMB     185      PMPG     HY       HAL2     0.900000E-01   1.00800           0   0.00000     -0.301140E-02
     22870 MEMB     185      PMPG     O31      OSL     -0.490000       15.9994           0   0.00000     -0.301140E-02
     22871 MEMB     185      PMPG     C31      CL       0.900000       12.0110           0   0.00000     -0.301140E-02
     22872 MEMB     185      PMPG     O32      OBL     -0.630000       15.9994           0   0.00000     -0.301140E-02
     22873 MEMB     185      PMPG     C32      CTL2    -0.220000       12.0110           0   0.00000     -0.301140E-02
     22874 MEMB     185      PMPG     H2X      HAL2     0.900000E-01   1.00800           0   0.00000     -0.301140E-02
     22875 MEMB     185      PMPG     H2Y      HAL2     0.900000E-01   1.00800           0   0.00000     -0.301140E-02
     22876 MEMB     185      PMPG     C23      CTL2    -0.180000       12.0110           0   0.00000     -0.301140E-02
     22877 MEMB     185      PMPG     H3R      HAL2     0.900000E-01   1.00800           0   0.00000     -0.301140E-02
     22878 MEMB     185      PMPG     H3S      HAL2     0.900000E-01   1.00800           0   0.00000     -0.301140E-02
     22879 MEMB     185      PMPG     C24      CTL2    -0.180000       12.0110           0   0.00000     -0.301140E-02
     22880 MEMB     185      PMPG     H4R      HAL2     0.900000E-01   1.00800           0   0.00000     -0.301140E-02
     22881 MEMB     185      PMPG     H4S      HAL2     0.900000E-01   1.00800           0   0.00000     -0.301140E-02
     22882 MEMB     185      PMPG     C25      CTL2    -0.180000       12.0110           0   0.00000     -0.301140E-02
     22883 MEMB     185      PMPG     H5R      HAL2     0.900000E-01   1.00800           0   0.00000     -0.301140E-02
     22884 MEMB     185      PMPG     H5S      HAL2     0.900000E-01   1.00800           0   0.00000     -0.301140E-02
     22885 MEMB     185      PMPG     C26      CTL2    -0.180000       12.0110           0   0.00000     -0.301140E-02
     22886 MEMB     185      PMPG     H6R      HAL2     0.900000E-01   1.00800           0   0.00000     -0.301140E-02
     22887 MEMB     185      PMPG     H6S      HAL2     0.900000E-01   1.00800           0   0.00000     -0.301140E-02
     22888 MEMB     185      PMPG     C27      CTL2    -0.180000       12.0110           0   0.00000     -0.301140E-02
     22889 MEMB     185      PMPG     H7R      HAL2     0.900000E-01   1.00800           0   0.00000     -0.301140E-02
     22890 MEMB     185      PMPG     H7S      HAL2     0.900000E-01   1.00800           0   0.00000     -0.301140E-02
     22891 MEMB     185      PMPG     C28      CTL2    -0.180000       12.0110           0   0.00000     -0.301140E-02
     22892 MEMB     185      PMPG     H8R      HAL2     0.900000E-01   1.00800           0   0.00000     -0.301140E-02
     22893 MEMB     185      PMPG     H8S      HAL2     0.900000E-01   1.00800           0   0.00000     -0.301140E-02
     22894 MEMB     185      PMPG     C29      CG3RC1  -0.900000E-01   12.0110           0   0.00000     -0.301140E-02
     22895 MEMB     185      PMPG     H9R      HGA1     0.900000E-01   1.00800           0   0.00000     -0.301140E-02
     22896 MEMB     185      PMPG     C217     CG3C31  -0.180000       12.0110           0   0.00000     -0.301140E-02
     22897 MEMB     185      PMPG     H17R     HGA2     0.900000E-01   1.00800           0   0.00000     -0.301140E-02
     22898 MEMB     185      PMPG     H17S     HGA2     0.900000E-01   1.00800           0   0.00000     -0.301140E-02
     22899 MEMB     185      PMPG     C210     CG3RC1  -0.900000E-01   12.0110           0   0.00000     -0.301140E-02
     22900 MEMB     185      PMPG     H10R     HGA1     0.900000E-01   1.00800           0   0.00000     -0.301140E-02
     22901 MEMB     185      PMPG     C211     CTL2    -0.180000       12.0110           0   0.00000     -0.301140E-02
     22902 MEMB     185      PMPG     H11R     HAL2     0.900000E-01   1.00800           0   0.00000     -0.301140E-02
     22903 MEMB     185      PMPG     H11S     HAL2     0.900000E-01   1.00800           0   0.00000     -0.301140E-02
     22904 MEMB     185      PMPG     C212     CTL2    -0.180000       12.0110           0   0.00000     -0.301140E-02
     22905 MEMB     185      PMPG     H12R     HAL2     0.900000E-01   1.00800           0   0.00000     -0.301140E-02
     22906 MEMB     185      PMPG     H12S     HAL2     0.900000E-01   1.00800           0   0.00000     -0.301140E-02
     22907 MEMB     185      PMPG     C213     CTL2    -0.180000       12.0110           0   0.00000     -0.301140E-02
     22908 MEMB     185      PMPG     H13R     HAL2     0.900000E-01   1.00800           0   0.00000     -0.301140E-02
     22909 MEMB     185      PMPG     H13S     HAL2     0.900000E-01   1.00800           0   0.00000     -0.301140E-02
     22910 MEMB     185      PMPG     C214     CTL2    -0.180000       12.0110           0   0.00000     -0.301140E-02
     22911 MEMB     185      PMPG     H14R     HAL2     0.900000E-01   1.00800           0   0.00000     -0.301140E-02
     22912 MEMB     185      PMPG     H14S     HAL2     0.900000E-01   1.00800           0   0.00000     -0.301140E-02
     22913 MEMB     185      PMPG     C215     CTL2    -0.180000       12.0110           0   0.00000     -0.301140E-02
     22914 MEMB     185      PMPG     H15R     HAL2     0.900000E-01   1.00800           0   0.00000     -0.301140E-02
     22915 MEMB     185      PMPG     H15S     HAL2     0.900000E-01   1.00800           0   0.00000     -0.301140E-02
     22916 MEMB     185      PMPG     C216     CTL3    -0.270000       12.0110           0   0.00000     -0.301140E-02
     22917 MEMB     185      PMPG     H16R     HAL3     0.900000E-01   1.00800           0   0.00000     -0.301140E-02
     22918 MEMB     185      PMPG     H16S     HAL3     0.900000E-01   1.00800           0   0.00000     -0.301140E-02
     22919 MEMB     185      PMPG     H16T     HAL3     0.900000E-01   1.00800           0   0.00000     -0.301140E-02
     22920 MEMB     185      PMPG     C33      CTL2    -0.180000       12.0110           0   0.00000     -0.301140E-02
     22921 MEMB     185      PMPG     H3X      HAL2     0.900000E-01   1.00800           0   0.00000     -0.301140E-02
     22922 MEMB     185      PMPG     H3Y      HAL2     0.900000E-01   1.00800           0   0.00000     -0.301140E-02
     22923 MEMB     185      PMPG     C34      CTL2    -0.180000       12.0110           0   0.00000     -0.301140E-02
     22924 MEMB     185      PMPG     H4X      HAL2     0.900000E-01   1.00800           0   0.00000     -0.301140E-02
     22925 MEMB     185      PMPG     H4Y      HAL2     0.900000E-01   1.00800           0   0.00000     -0.301140E-02
     22926 MEMB     185      PMPG     C35      CTL2    -0.180000       12.0110           0   0.00000     -0.301140E-02
     22927 MEMB     185      PMPG     H5X      HAL2     0.900000E-01   1.00800           0   0.00000     -0.301140E-02
     22928 MEMB     185      PMPG     H5Y      HAL2     0.900000E-01   1.00800           0   0.00000     -0.301140E-02
     22929 MEMB     185      PMPG     C36      CTL2    -0.180000       12.0110           0   0.00000     -0.301140E-02
     22930 MEMB     185      PMPG     H6X      HAL2     0.900000E-01   1.00800           0   0.00000     -0.301140E-02
     22931 MEMB     185      PMPG     H6Y      HAL2     0.900000E-01   1.00800           0   0.00000     -0.301140E-02
     22932 MEMB     185      PMPG     C37      CTL2    -0.180000       12.0110           0   0.00000     -0.301140E-02
     22933 MEMB     185      PMPG     H7X      HAL2     0.900000E-01   1.00800           0   0.00000     -0.301140E-02
     22934 MEMB     185      PMPG     H7Y      HAL2     0.900000E-01   1.00800           0   0.00000     -0.301140E-02
     22935 MEMB     185      PMPG     C38      CTL2    -0.180000       12.0110           0   0.00000     -0.301140E-02
     22936 MEMB     185      PMPG     H8X      HAL2     0.900000E-01   1.00800           0   0.00000     -0.301140E-02
     22937 MEMB     185      PMPG     H8Y      HAL2     0.900000E-01   1.00800           0   0.00000     -0.301140E-02
     22938 MEMB     185      PMPG     C39      CTL2    -0.180000       12.0110           0   0.00000     -0.301140E-02
     22939 MEMB     185      PMPG     H9X      HAL2     0.900000E-01   1.00800           0   0.00000     -0.301140E-02
     22940 MEMB     185      PMPG     H9Y      HAL2     0.900000E-01   1.00800           0   0.00000     -0.301140E-02
     22941 MEMB     185      PMPG     C310     CTL2    -0.180000       12.0110           0   0.00000     -0.301140E-02
     22942 MEMB     185      PMPG     H10X     HAL2     0.900000E-01   1.00800           0   0.00000     -0.301140E-02
     22943 MEMB     185      PMPG     H10Y     HAL2     0.900000E-01   1.00800           0   0.00000     -0.301140E-02
     22944 MEMB     185      PMPG     C311     CTL2    -0.180000       12.0110           0   0.00000     -0.301140E-02
     22945 MEMB     185      PMPG     H11X     HAL2     0.900000E-01   1.00800           0   0.00000     -0.301140E-02
     22946 MEMB     185      PMPG     H11Y     HAL2     0.900000E-01   1.00800           0   0.00000     -0.301140E-02
     22947 MEMB     185      PMPG     C312     CTL2    -0.180000       12.0110           0   0.00000     -0.301140E-02
     22948 MEMB     185      PMPG     H12X     HAL2     0.900000E-01   1.00800           0   0.00000     -0.301140E-02
     22949 MEMB     185      PMPG     H12Y     HAL2     0.900000E-01   1.00800           0   0.00000     -0.301140E-02
     22950 MEMB     185      PMPG     C313     CTL2    -0.180000       12.0110           0   0.00000     -0.301140E-02
     22951 MEMB     185      PMPG     H13X     HAL2     0.900000E-01   1.00800           0   0.00000     -0.301140E-02
     22952 MEMB     185      PMPG     H13Y     HAL2     0.900000E-01   1.00800           0   0.00000     -0.301140E-02
     22953 MEMB     185      PMPG     C314     CTL2    -0.180000       12.0110           0   0.00000     -0.301140E-02
     22954 MEMB     185      PMPG     H14X     HAL2     0.900000E-01   1.00800           0   0.00000     -0.301140E-02
     22955 MEMB     185      PMPG     H14Y     HAL2     0.900000E-01   1.00800           0   0.00000     -0.301140E-02
     22956 MEMB     185      PMPG     C315     CTL2    -0.180000       12.0110           0   0.00000     -0.301140E-02
     22957 MEMB     185      PMPG     H15X     HAL2     0.900000E-01   1.00800           0   0.00000     -0.301140E-02
     22958 MEMB     185      PMPG     H15Y     HAL2     0.900000E-01   1.00800           0   0.00000     -0.301140E-02
     22959 MEMB     185      PMPG     C316     CTL3    -0.270000       12.0110           0   0.00000     -0.301140E-02
     22960 MEMB     185      PMPG     H16X     HAL3     0.900000E-01   1.00800           0   0.00000     -0.301140E-02
     22961 MEMB     185      PMPG     H16Y     HAL3     0.900000E-01   1.00800           0   0.00000     -0.301140E-02
     22962 MEMB     185      PMPG     H16Z     HAL3     0.900000E-01   1.00800           0   0.00000     -0.301140E-02
     22963 MEMB     186      PMPE     N        NH3L    -0.300000       14.0070           0   0.00000     -0.301140E-02
     22964 MEMB     186      PMPE     HN1      HCL      0.330000       1.00800           0   0.00000     -0.301140E-02
     22965 MEMB     186      PMPE     HN2      HCL      0.330000       1.00800           0   0.00000     -0.301140E-02
     22966 MEMB     186      PMPE     HN3      HCL      0.330000       1.00800           0   0.00000     -0.301140E-02
     22967 MEMB     186      PMPE     C12      CTL2     0.130000       12.0110           0   0.00000     -0.301140E-02
     22968 MEMB     186      PMPE     H12A     HAL2     0.900000E-01   1.00800           0   0.00000     -0.301140E-02
     22969 MEMB     186      PMPE     H12B     HAL2     0.900000E-01   1.00800           0   0.00000     -0.301140E-02
     22970 MEMB     186      PMPE     C11      CTL2    -0.800000E-01   12.0110           0   0.00000     -0.301140E-02
     22971 MEMB     186      PMPE     H11A     HAL2     0.900000E-01   1.00800           0   0.00000     -0.301140E-02
     22972 MEMB     186      PMPE     H11B     HAL2     0.900000E-01   1.00800           0   0.00000     -0.301140E-02
     22973 MEMB     186      PMPE     P        PL        1.50000       30.9740           0   0.00000     -0.301140E-02
     22974 MEMB     186      PMPE     O13      O2L     -0.780000       15.9994           0   0.00000     -0.301140E-02
     22975 MEMB     186      PMPE     O14      O2L     -0.780000       15.9994           0   0.00000     -0.301140E-02
     22976 MEMB     186      PMPE     O11      OSLP    -0.570000       15.9994           0   0.00000     -0.301140E-02
     22977 MEMB     186      PMPE     O12      OSLP    -0.570000       15.9994           0   0.00000     -0.301140E-02
     22978 MEMB     186      PMPE     C1       CTL2    -0.800000E-01   12.0110           0   0.00000     -0.301140E-02
     22979 MEMB     186      PMPE     HA       HAL2     0.900000E-01   1.00800           0   0.00000     -0.301140E-02
     22980 MEMB     186      PMPE     HB       HAL2     0.900000E-01   1.00800           0   0.00000     -0.301140E-02
     22981 MEMB     186      PMPE     C2       CTL1     0.170000       12.0110           0   0.00000     -0.301140E-02
     22982 MEMB     186      PMPE     HS       HAL1     0.900000E-01   1.00800           0   0.00000     -0.301140E-02
     22983 MEMB     186      PMPE     O21      OSL     -0.490000       15.9994           0   0.00000     -0.301140E-02
     22984 MEMB     186      PMPE     C21      CL       0.900000       12.0110           0   0.00000     -0.301140E-02
     22985 MEMB     186      PMPE     O22      OBL     -0.630000       15.9994           0   0.00000     -0.301140E-02
     22986 MEMB     186      PMPE     C22      CTL2    -0.220000       12.0110           0   0.00000     -0.301140E-02
     22987 MEMB     186      PMPE     H2R      HAL2     0.900000E-01   1.00800           0   0.00000     -0.301140E-02
     22988 MEMB     186      PMPE     H2S      HAL2     0.900000E-01   1.00800           0   0.00000     -0.301140E-02
     22989 MEMB     186      PMPE     C3       CTL2     0.800000E-01   12.0110           0   0.00000     -0.301140E-02
     22990 MEMB     186      PMPE     HX       HAL2     0.900000E-01   1.00800           0   0.00000     -0.301140E-02
     22991 MEMB     186      PMPE     HY       HAL2     0.900000E-01   1.00800           0   0.00000     -0.301140E-02
     22992 MEMB     186      PMPE     O31      OSL     -0.490000       15.9994           0   0.00000     -0.301140E-02
     22993 MEMB     186      PMPE     C31      CL       0.900000       12.0110           0   0.00000     -0.301140E-02
     22994 MEMB     186      PMPE     O32      OBL     -0.630000       15.9994           0   0.00000     -0.301140E-02
     22995 MEMB     186      PMPE     C32      CTL2    -0.220000       12.0110           0   0.00000     -0.301140E-02
     22996 MEMB     186      PMPE     H2X      HAL2     0.900000E-01   1.00800           0   0.00000     -0.301140E-02
     22997 MEMB     186      PMPE     H2Y      HAL2     0.900000E-01   1.00800           0   0.00000     -0.301140E-02
     22998 MEMB     186      PMPE     C23      CTL2    -0.180000       12.0110           0   0.00000     -0.301140E-02
     22999 MEMB     186      PMPE     H3R      HAL2     0.900000E-01   1.00800           0   0.00000     -0.301140E-02
     23000 MEMB     186      PMPE     H3S      HAL2     0.900000E-01   1.00800           0   0.00000     -0.301140E-02
     23001 MEMB     186      PMPE     C24      CTL2    -0.180000       12.0110           0   0.00000     -0.301140E-02
     23002 MEMB     186      PMPE     H4R      HAL2     0.900000E-01   1.00800           0   0.00000     -0.301140E-02
     23003 MEMB     186      PMPE     H4S      HAL2     0.900000E-01   1.00800           0   0.00000     -0.301140E-02
     23004 MEMB     186      PMPE     C25      CTL2    -0.180000       12.0110           0   0.00000     -0.301140E-02
     23005 MEMB     186      PMPE     H5R      HAL2     0.900000E-01   1.00800           0   0.00000     -0.301140E-02
     23006 MEMB     186      PMPE     H5S      HAL2     0.900000E-01   1.00800           0   0.00000     -0.301140E-02
     23007 MEMB     186      PMPE     C26      CTL2    -0.180000       12.0110           0   0.00000     -0.301140E-02
     23008 MEMB     186      PMPE     H6R      HAL2     0.900000E-01   1.00800           0   0.00000     -0.301140E-02
     23009 MEMB     186      PMPE     H6S      HAL2     0.900000E-01   1.00800           0   0.00000     -0.301140E-02
     23010 MEMB     186      PMPE     C27      CTL2    -0.180000       12.0110           0   0.00000     -0.301140E-02
     23011 MEMB     186      PMPE     H7R      HAL2     0.900000E-01   1.00800           0   0.00000     -0.301140E-02
     23012 MEMB     186      PMPE     H7S      HAL2     0.900000E-01   1.00800           0   0.00000     -0.301140E-02
     23013 MEMB     186      PMPE     C28      CTL2    -0.180000       12.0110           0   0.00000     -0.301140E-02
     23014 MEMB     186      PMPE     H8R      HAL2     0.900000E-01   1.00800           0   0.00000     -0.301140E-02
     23015 MEMB     186      PMPE     H8S      HAL2     0.900000E-01   1.00800           0   0.00000     -0.301140E-02
     23016 MEMB     186      PMPE     C29      CG3RC1  -0.900000E-01   12.0110           0   0.00000     -0.301140E-02
     23017 MEMB     186      PMPE     H9R      HGA1     0.900000E-01   1.00800           0   0.00000     -0.301140E-02
     23018 MEMB     186      PMPE     C217     CG3C31  -0.180000       12.0110           0   0.00000     -0.301140E-02
     23019 MEMB     186      PMPE     H17R     HGA2     0.900000E-01   1.00800           0   0.00000     -0.301140E-02
     23020 MEMB     186      PMPE     H17S     HGA2     0.900000E-01   1.00800           0   0.00000     -0.301140E-02
     23021 MEMB     186      PMPE     C210     CG3RC1  -0.900000E-01   12.0110           0   0.00000     -0.301140E-02
     23022 MEMB     186      PMPE     H10R     HGA1     0.900000E-01   1.00800           0   0.00000     -0.301140E-02
     23023 MEMB     186      PMPE     C211     CTL2    -0.180000       12.0110           0   0.00000     -0.301140E-02
     23024 MEMB     186      PMPE     H11R     HAL2     0.900000E-01   1.00800           0   0.00000     -0.301140E-02
     23025 MEMB     186      PMPE     H11S     HAL2     0.900000E-01   1.00800           0   0.00000     -0.301140E-02
     23026 MEMB     186      PMPE     C212     CTL2    -0.180000       12.0110           0   0.00000     -0.301140E-02
     23027 MEMB     186      PMPE     H12R     HAL2     0.900000E-01   1.00800           0   0.00000     -0.301140E-02
     23028 MEMB     186      PMPE     H12S     HAL2     0.900000E-01   1.00800           0   0.00000     -0.301140E-02
     23029 MEMB     186      PMPE     C213     CTL2    -0.180000       12.0110           0   0.00000     -0.301140E-02
     23030 MEMB     186      PMPE     H13R     HAL2     0.900000E-01   1.00800           0   0.00000     -0.301140E-02
     23031 MEMB     186      PMPE     H13S     HAL2     0.900000E-01   1.00800           0   0.00000     -0.301140E-02
     23032 MEMB     186      PMPE     C214     CTL2    -0.180000       12.0110           0   0.00000     -0.301140E-02
     23033 MEMB     186      PMPE     H14R     HAL2     0.900000E-01   1.00800           0   0.00000     -0.301140E-02
     23034 MEMB     186      PMPE     H14S     HAL2     0.900000E-01   1.00800           0   0.00000     -0.301140E-02
     23035 MEMB     186      PMPE     C215     CTL2    -0.180000       12.0110           0   0.00000     -0.301140E-02
     23036 MEMB     186      PMPE     H15R     HAL2     0.900000E-01   1.00800           0   0.00000     -0.301140E-02
     23037 MEMB     186      PMPE     H15S     HAL2     0.900000E-01   1.00800           0   0.00000     -0.301140E-02
     23038 MEMB     186      PMPE     C216     CTL3    -0.270000       12.0110           0   0.00000     -0.301140E-02
     23039 MEMB     186      PMPE     H16R     HAL3     0.900000E-01   1.00800           0   0.00000     -0.301140E-02
     23040 MEMB     186      PMPE     H16S     HAL3     0.900000E-01   1.00800           0   0.00000     -0.301140E-02
     23041 MEMB     186      PMPE     H16T     HAL3     0.900000E-01   1.00800           0   0.00000     -0.301140E-02
     23042 MEMB     186      PMPE     C33      CTL2    -0.180000       12.0110           0   0.00000     -0.301140E-02
     23043 MEMB     186      PMPE     H3X      HAL2     0.900000E-01   1.00800           0   0.00000     -0.301140E-02
     23044 MEMB     186      PMPE     H3Y      HAL2     0.900000E-01   1.00800           0   0.00000     -0.301140E-02
     23045 MEMB     186      PMPE     C34      CTL2    -0.180000       12.0110           0   0.00000     -0.301140E-02
     23046 MEMB     186      PMPE     H4X      HAL2     0.900000E-01   1.00800           0   0.00000     -0.301140E-02
     23047 MEMB     186      PMPE     H4Y      HAL2     0.900000E-01   1.00800           0   0.00000     -0.301140E-02
     23048 MEMB     186      PMPE     C35      CTL2    -0.180000       12.0110           0   0.00000     -0.301140E-02
     23049 MEMB     186      PMPE     H5X      HAL2     0.900000E-01   1.00800           0   0.00000     -0.301140E-02
     23050 MEMB     186      PMPE     H5Y      HAL2     0.900000E-01   1.00800           0   0.00000     -0.301140E-02
     23051 MEMB     186      PMPE     C36      CTL2    -0.180000       12.0110           0   0.00000     -0.301140E-02
     23052 MEMB     186      PMPE     H6X      HAL2     0.900000E-01   1.00800           0   0.00000     -0.301140E-02
     23053 MEMB     186      PMPE     H6Y      HAL2     0.900000E-01   1.00800           0   0.00000     -0.301140E-02
     23054 MEMB     186      PMPE     C37      CTL2    -0.180000       12.0110           0   0.00000     -0.301140E-02
     23055 MEMB     186      PMPE     H7X      HAL2     0.900000E-01   1.00800           0   0.00000     -0.301140E-02
     23056 MEMB     186      PMPE     H7Y      HAL2     0.900000E-01   1.00800           0   0.00000     -0.301140E-02
     23057 MEMB     186      PMPE     C38      CTL2    -0.180000       12.0110           0   0.00000     -0.301140E-02
     23058 MEMB     186      PMPE     H8X      HAL2     0.900000E-01   1.00800           0   0.00000     -0.301140E-02
     23059 MEMB     186      PMPE     H8Y      HAL2     0.900000E-01   1.00800           0   0.00000     -0.301140E-02
     23060 MEMB     186      PMPE     C39      CTL2    -0.180000       12.0110           0   0.00000     -0.301140E-02
     23061 MEMB     186      PMPE     H9X      HAL2     0.900000E-01   1.00800           0   0.00000     -0.301140E-02
     23062 MEMB     186      PMPE     H9Y      HAL2     0.900000E-01   1.00800           0   0.00000     -0.301140E-02
     23063 MEMB     186      PMPE     C310     CTL2    -0.180000       12.0110           0   0.00000     -0.301140E-02
     23064 MEMB     186      PMPE     H10X     HAL2     0.900000E-01   1.00800           0   0.00000     -0.301140E-02
     23065 MEMB     186      PMPE     H10Y     HAL2     0.900000E-01   1.00800           0   0.00000     -0.301140E-02
     23066 MEMB     186      PMPE     C311     CTL2    -0.180000       12.0110           0   0.00000     -0.301140E-02
     23067 MEMB     186      PMPE     H11X     HAL2     0.900000E-01   1.00800           0   0.00000     -0.301140E-02
     23068 MEMB     186      PMPE     H11Y     HAL2     0.900000E-01   1.00800           0   0.00000     -0.301140E-02
     23069 MEMB     186      PMPE     C312     CTL2    -0.180000       12.0110           0   0.00000     -0.301140E-02
     23070 MEMB     186      PMPE     H12X     HAL2     0.900000E-01   1.00800           0   0.00000     -0.301140E-02
     23071 MEMB     186      PMPE     H12Y     HAL2     0.900000E-01   1.00800           0   0.00000     -0.301140E-02
     23072 MEMB     186      PMPE     C313     CTL2    -0.180000       12.0110           0   0.00000     -0.301140E-02
     23073 MEMB     186      PMPE     H13X     HAL2     0.900000E-01   1.00800           0   0.00000     -0.301140E-02
     23074 MEMB     186      PMPE     H13Y     HAL2     0.900000E-01   1.00800           0   0.00000     -0.301140E-02
     23075 MEMB     186      PMPE     C314     CTL2    -0.180000       12.0110           0   0.00000     -0.301140E-02
     23076 MEMB     186      PMPE     H14X     HAL2     0.900000E-01   1.00800           0   0.00000     -0.301140E-02
     23077 MEMB     186      PMPE     H14Y     HAL2     0.900000E-01   1.00800           0   0.00000     -0.301140E-02
     23078 MEMB     186      PMPE     C315     CTL2    -0.180000       12.0110           0   0.00000     -0.301140E-02
     23079 MEMB     186      PMPE     H15X     HAL2     0.900000E-01   1.00800           0   0.00000     -0.301140E-02
     23080 MEMB     186      PMPE     H15Y     HAL2     0.900000E-01   1.00800           0   0.00000     -0.301140E-02
     23081 MEMB     186      PMPE     C316     CTL3    -0.270000       12.0110           0   0.00000     -0.301140E-02
     23082 MEMB     186      PMPE     H16X     HAL3     0.900000E-01   1.00800           0   0.00000     -0.301140E-02
     23083 MEMB     186      PMPE     H16Y     HAL3     0.900000E-01   1.00800           0   0.00000     -0.301140E-02
     23084 MEMB     186      PMPE     H16Z     HAL3     0.900000E-01   1.00800           0   0.00000     -0.301140E-02
     23085 MEMB     187      POPE     N        NH3L    -0.300000       14.0070           0   0.00000     -0.301140E-02
     23086 MEMB     187      POPE     HN1      HCL      0.330000       1.00800           0   0.00000     -0.301140E-02
     23087 MEMB     187      POPE     HN2      HCL      0.330000       1.00800           0   0.00000     -0.301140E-02
     23088 MEMB     187      POPE     HN3      HCL      0.330000       1.00800           0   0.00000     -0.301140E-02
     23089 MEMB     187      POPE     C12      CTL2     0.130000       12.0110           0   0.00000     -0.301140E-02
     23090 MEMB     187      POPE     H12A     HAL2     0.900000E-01   1.00800           0   0.00000     -0.301140E-02
     23091 MEMB     187      POPE     H12B     HAL2     0.900000E-01   1.00800           0   0.00000     -0.301140E-02
     23092 MEMB     187      POPE     C11      CTL2    -0.800000E-01   12.0110           0   0.00000     -0.301140E-02
     23093 MEMB     187      POPE     H11A     HAL2     0.900000E-01   1.00800           0   0.00000     -0.301140E-02
     23094 MEMB     187      POPE     H11B     HAL2     0.900000E-01   1.00800           0   0.00000     -0.301140E-02
     23095 MEMB     187      POPE     P        PL        1.50000       30.9740           0   0.00000     -0.301140E-02
     23096 MEMB     187      POPE     O13      O2L     -0.780000       15.9994           0   0.00000     -0.301140E-02
     23097 MEMB     187      POPE     O14      O2L     -0.780000       15.9994           0   0.00000     -0.301140E-02
     23098 MEMB     187      POPE     O11      OSLP    -0.570000       15.9994           0   0.00000     -0.301140E-02
     23099 MEMB     187      POPE     O12      OSLP    -0.570000       15.9994           0   0.00000     -0.301140E-02
     23100 MEMB     187      POPE     C1       CTL2    -0.800000E-01   12.0110           0   0.00000     -0.301140E-02
     23101 MEMB     187      POPE     HA       HAL2     0.900000E-01   1.00800           0   0.00000     -0.301140E-02
     23102 MEMB     187      POPE     HB       HAL2     0.900000E-01   1.00800           0   0.00000     -0.301140E-02
     23103 MEMB     187      POPE     C2       CTL1     0.170000       12.0110           0   0.00000     -0.301140E-02
     23104 MEMB     187      POPE     HS       HAL1     0.900000E-01   1.00800           0   0.00000     -0.301140E-02
     23105 MEMB     187      POPE     O21      OSL     -0.490000       15.9994           0   0.00000     -0.301140E-02
     23106 MEMB     187      POPE     C21      CL       0.900000       12.0110           0   0.00000     -0.301140E-02
     23107 MEMB     187      POPE     O22      OBL     -0.630000       15.9994           0   0.00000     -0.301140E-02
     23108 MEMB     187      POPE     C22      CTL2    -0.220000       12.0110           0   0.00000     -0.301140E-02
     23109 MEMB     187      POPE     H2R      HAL2     0.900000E-01   1.00800           0   0.00000     -0.301140E-02
     23110 MEMB     187      POPE     H2S      HAL2     0.900000E-01   1.00800           0   0.00000     -0.301140E-02
     23111 MEMB     187      POPE     C3       CTL2     0.800000E-01   12.0110           0   0.00000     -0.301140E-02
     23112 MEMB     187      POPE     HX       HAL2     0.900000E-01   1.00800           0   0.00000     -0.301140E-02
     23113 MEMB     187      POPE     HY       HAL2     0.900000E-01   1.00800           0   0.00000     -0.301140E-02
     23114 MEMB     187      POPE     O31      OSL     -0.490000       15.9994           0   0.00000     -0.301140E-02
     23115 MEMB     187      POPE     C31      CL       0.900000       12.0110           0   0.00000     -0.301140E-02
     23116 MEMB     187      POPE     O32      OBL     -0.630000       15.9994           0   0.00000     -0.301140E-02
     23117 MEMB     187      POPE     C32      CTL2    -0.220000       12.0110           0   0.00000     -0.301140E-02
     23118 MEMB     187      POPE     H2X      HAL2     0.900000E-01   1.00800           0   0.00000     -0.301140E-02
     23119 MEMB     187      POPE     H2Y      HAL2     0.900000E-01   1.00800           0   0.00000     -0.301140E-02
     23120 MEMB     187      POPE     C23      CTL2    -0.180000       12.0110           0   0.00000     -0.301140E-02
     23121 MEMB     187      POPE     H3R      HAL2     0.900000E-01   1.00800           0   0.00000     -0.301140E-02
     23122 MEMB     187      POPE     H3S      HAL2     0.900000E-01   1.00800           0   0.00000     -0.301140E-02
     23123 MEMB     187      POPE     C24      CTL2    -0.180000       12.0110           0   0.00000     -0.301140E-02
     23124 MEMB     187      POPE     H4R      HAL2     0.900000E-01   1.00800           0   0.00000     -0.301140E-02
     23125 MEMB     187      POPE     H4S      HAL2     0.900000E-01   1.00800           0   0.00000     -0.301140E-02
     23126 MEMB     187      POPE     C25      CTL2    -0.180000       12.0110           0   0.00000     -0.301140E-02
     23127 MEMB     187      POPE     H5R      HAL2     0.900000E-01   1.00800           0   0.00000     -0.301140E-02
     23128 MEMB     187      POPE     H5S      HAL2     0.900000E-01   1.00800           0   0.00000     -0.301140E-02
     23129 MEMB     187      POPE     C26      CTL2    -0.180000       12.0110           0   0.00000     -0.301140E-02
     23130 MEMB     187      POPE     H6R      HAL2     0.900000E-01   1.00800           0   0.00000     -0.301140E-02
     23131 MEMB     187      POPE     H6S      HAL2     0.900000E-01   1.00800           0   0.00000     -0.301140E-02
     23132 MEMB     187      POPE     C27      CTL2    -0.180000       12.0110           0   0.00000     -0.301140E-02
     23133 MEMB     187      POPE     H7R      HAL2     0.900000E-01   1.00800           0   0.00000     -0.301140E-02
     23134 MEMB     187      POPE     H7S      HAL2     0.900000E-01   1.00800           0   0.00000     -0.301140E-02
     23135 MEMB     187      POPE     C28      CTL2    -0.180000       12.0110           0   0.00000     -0.301140E-02
     23136 MEMB     187      POPE     H8R      HAL2     0.900000E-01   1.00800           0   0.00000     -0.301140E-02
     23137 MEMB     187      POPE     H8S      HAL2     0.900000E-01   1.00800           0   0.00000     -0.301140E-02
     23138 MEMB     187      POPE     C29      CEL1    -0.150000       12.0110           0   0.00000     -0.301140E-02
     23139 MEMB     187      POPE     H91      HEL1     0.150000       1.00800           0   0.00000     -0.301140E-02
     23140 MEMB     187      POPE     C210     CEL1    -0.150000       12.0110           0   0.00000     -0.301140E-02
     23141 MEMB     187      POPE     H101     HEL1     0.150000       1.00800           0   0.00000     -0.301140E-02
     23142 MEMB     187      POPE     C211     CTL2    -0.180000       12.0110           0   0.00000     -0.301140E-02
     23143 MEMB     187      POPE     H11R     HAL2     0.900000E-01   1.00800           0   0.00000     -0.301140E-02
     23144 MEMB     187      POPE     H11S     HAL2     0.900000E-01   1.00800           0   0.00000     -0.301140E-02
     23145 MEMB     187      POPE     C212     CTL2    -0.180000       12.0110           0   0.00000     -0.301140E-02
     23146 MEMB     187      POPE     H12R     HAL2     0.900000E-01   1.00800           0   0.00000     -0.301140E-02
     23147 MEMB     187      POPE     H12S     HAL2     0.900000E-01   1.00800           0   0.00000     -0.301140E-02
     23148 MEMB     187      POPE     C213     CTL2    -0.180000       12.0110           0   0.00000     -0.301140E-02
     23149 MEMB     187      POPE     H13R     HAL2     0.900000E-01   1.00800           0   0.00000     -0.301140E-02
     23150 MEMB     187      POPE     H13S     HAL2     0.900000E-01   1.00800           0   0.00000     -0.301140E-02
     23151 MEMB     187      POPE     C214     CTL2    -0.180000       12.0110           0   0.00000     -0.301140E-02
     23152 MEMB     187      POPE     H14R     HAL2     0.900000E-01   1.00800           0   0.00000     -0.301140E-02
     23153 MEMB     187      POPE     H14S     HAL2     0.900000E-01   1.00800           0   0.00000     -0.301140E-02
     23154 MEMB     187      POPE     C215     CTL2    -0.180000       12.0110           0   0.00000     -0.301140E-02
     23155 MEMB     187      POPE     H15R     HAL2     0.900000E-01   1.00800           0   0.00000     -0.301140E-02
     23156 MEMB     187      POPE     H15S     HAL2     0.900000E-01   1.00800           0   0.00000     -0.301140E-02
     23157 MEMB     187      POPE     C216     CTL2    -0.180000       12.0110           0   0.00000     -0.301140E-02
     23158 MEMB     187      POPE     H16R     HAL2     0.900000E-01   1.00800           0   0.00000     -0.301140E-02
     23159 MEMB     187      POPE     H16S     HAL2     0.900000E-01   1.00800           0   0.00000     -0.301140E-02
     23160 MEMB     187      POPE     C217     CTL2    -0.180000       12.0110           0   0.00000     -0.301140E-02
     23161 MEMB     187      POPE     H17R     HAL2     0.900000E-01   1.00800           0   0.00000     -0.301140E-02
     23162 MEMB     187      POPE     H17S     HAL2     0.900000E-01   1.00800           0   0.00000     -0.301140E-02
     23163 MEMB     187      POPE     C218     CTL3    -0.270000       12.0110           0   0.00000     -0.301140E-02
     23164 MEMB     187      POPE     H18R     HAL3     0.900000E-01   1.00800           0   0.00000     -0.301140E-02
     23165 MEMB     187      POPE     H18S     HAL3     0.900000E-01   1.00800           0   0.00000     -0.301140E-02
     23166 MEMB     187      POPE     H18T     HAL3     0.900000E-01   1.00800           0   0.00000     -0.301140E-02
     23167 MEMB     187      POPE     C33      CTL2    -0.180000       12.0110           0   0.00000     -0.301140E-02
     23168 MEMB     187      POPE     H3X      HAL2     0.900000E-01   1.00800           0   0.00000     -0.301140E-02
     23169 MEMB     187      POPE     H3Y      HAL2     0.900000E-01   1.00800           0   0.00000     -0.301140E-02
     23170 MEMB     187      POPE     C34      CTL2    -0.180000       12.0110           0   0.00000     -0.301140E-02
     23171 MEMB     187      POPE     H4X      HAL2     0.900000E-01   1.00800           0   0.00000     -0.301140E-02
     23172 MEMB     187      POPE     H4Y      HAL2     0.900000E-01   1.00800           0   0.00000     -0.301140E-02
     23173 MEMB     187      POPE     C35      CTL2    -0.180000       12.0110           0   0.00000     -0.301140E-02
     23174 MEMB     187      POPE     H5X      HAL2     0.900000E-01   1.00800           0   0.00000     -0.301140E-02
     23175 MEMB     187      POPE     H5Y      HAL2     0.900000E-01   1.00800           0   0.00000     -0.301140E-02
     23176 MEMB     187      POPE     C36      CTL2    -0.180000       12.0110           0   0.00000     -0.301140E-02
     23177 MEMB     187      POPE     H6X      HAL2     0.900000E-01   1.00800           0   0.00000     -0.301140E-02
     23178 MEMB     187      POPE     H6Y      HAL2     0.900000E-01   1.00800           0   0.00000     -0.301140E-02
     23179 MEMB     187      POPE     C37      CTL2    -0.180000       12.0110           0   0.00000     -0.301140E-02
     23180 MEMB     187      POPE     H7X      HAL2     0.900000E-01   1.00800           0   0.00000     -0.301140E-02
     23181 MEMB     187      POPE     H7Y      HAL2     0.900000E-01   1.00800           0   0.00000     -0.301140E-02
     23182 MEMB     187      POPE     C38      CTL2    -0.180000       12.0110           0   0.00000     -0.301140E-02
     23183 MEMB     187      POPE     H8X      HAL2     0.900000E-01   1.00800           0   0.00000     -0.301140E-02
     23184 MEMB     187      POPE     H8Y      HAL2     0.900000E-01   1.00800           0   0.00000     -0.301140E-02
     23185 MEMB     187      POPE     C39      CTL2    -0.180000       12.0110           0   0.00000     -0.301140E-02
     23186 MEMB     187      POPE     H9X      HAL2     0.900000E-01   1.00800           0   0.00000     -0.301140E-02
     23187 MEMB     187      POPE     H9Y      HAL2     0.900000E-01   1.00800           0   0.00000     -0.301140E-02
     23188 MEMB     187      POPE     C310     CTL2    -0.180000       12.0110           0   0.00000     -0.301140E-02
     23189 MEMB     187      POPE     H10X     HAL2     0.900000E-01   1.00800           0   0.00000     -0.301140E-02
     23190 MEMB     187      POPE     H10Y     HAL2     0.900000E-01   1.00800           0   0.00000     -0.301140E-02
     23191 MEMB     187      POPE     C311     CTL2    -0.180000       12.0110           0   0.00000     -0.301140E-02
     23192 MEMB     187      POPE     H11X     HAL2     0.900000E-01   1.00800           0   0.00000     -0.301140E-02
     23193 MEMB     187      POPE     H11Y     HAL2     0.900000E-01   1.00800           0   0.00000     -0.301140E-02
     23194 MEMB     187      POPE     C312     CTL2    -0.180000       12.0110           0   0.00000     -0.301140E-02
     23195 MEMB     187      POPE     H12X     HAL2     0.900000E-01   1.00800           0   0.00000     -0.301140E-02
     23196 MEMB     187      POPE     H12Y     HAL2     0.900000E-01   1.00800           0   0.00000     -0.301140E-02
     23197 MEMB     187      POPE     C313     CTL2    -0.180000       12.0110           0   0.00000     -0.301140E-02
     23198 MEMB     187      POPE     H13X     HAL2     0.900000E-01   1.00800           0   0.00000     -0.301140E-02
     23199 MEMB     187      POPE     H13Y     HAL2     0.900000E-01   1.00800           0   0.00000     -0.301140E-02
     23200 MEMB     187      POPE     C314     CTL2    -0.180000       12.0110           0   0.00000     -0.301140E-02
     23201 MEMB     187      POPE     H14X     HAL2     0.900000E-01   1.00800           0   0.00000     -0.301140E-02
     23202 MEMB     187      POPE     H14Y     HAL2     0.900000E-01   1.00800           0   0.00000     -0.301140E-02
     23203 MEMB     187      POPE     C315     CTL2    -0.180000       12.0110           0   0.00000     -0.301140E-02
     23204 MEMB     187      POPE     H15X     HAL2     0.900000E-01   1.00800           0   0.00000     -0.301140E-02
     23205 MEMB     187      POPE     H15Y     HAL2     0.900000E-01   1.00800           0   0.00000     -0.301140E-02
     23206 MEMB     187      POPE     C316     CTL3    -0.270000       12.0110           0   0.00000     -0.301140E-02
     23207 MEMB     187      POPE     H16X     HAL3     0.900000E-01   1.00800           0   0.00000     -0.301140E-02
     23208 MEMB     187      POPE     H16Y     HAL3     0.900000E-01   1.00800           0   0.00000     -0.301140E-02
     23209 MEMB     187      POPE     H16Z     HAL3     0.900000E-01   1.00800           0   0.00000     -0.301140E-02
     23210 MEMB     188      PMPE     N        NH3L    -0.300000       14.0070           0   0.00000     -0.301140E-02
     23211 MEMB     188      PMPE     HN1      HCL      0.330000       1.00800           0   0.00000     -0.301140E-02
     23212 MEMB     188      PMPE     HN2      HCL      0.330000       1.00800           0   0.00000     -0.301140E-02
     23213 MEMB     188      PMPE     HN3      HCL      0.330000       1.00800           0   0.00000     -0.301140E-02
     23214 MEMB     188      PMPE     C12      CTL2     0.130000       12.0110           0   0.00000     -0.301140E-02
     23215 MEMB     188      PMPE     H12A     HAL2     0.900000E-01   1.00800           0   0.00000     -0.301140E-02
     23216 MEMB     188      PMPE     H12B     HAL2     0.900000E-01   1.00800           0   0.00000     -0.301140E-02
     23217 MEMB     188      PMPE     C11      CTL2    -0.800000E-01   12.0110           0   0.00000     -0.301140E-02
     23218 MEMB     188      PMPE     H11A     HAL2     0.900000E-01   1.00800           0   0.00000     -0.301140E-02
     23219 MEMB     188      PMPE     H11B     HAL2     0.900000E-01   1.00800           0   0.00000     -0.301140E-02
     23220 MEMB     188      PMPE     P        PL        1.50000       30.9740           0   0.00000     -0.301140E-02
     23221 MEMB     188      PMPE     O13      O2L     -0.780000       15.9994           0   0.00000     -0.301140E-02
     23222 MEMB     188      PMPE     O14      O2L     -0.780000       15.9994           0   0.00000     -0.301140E-02
     23223 MEMB     188      PMPE     O11      OSLP    -0.570000       15.9994           0   0.00000     -0.301140E-02
     23224 MEMB     188      PMPE     O12      OSLP    -0.570000       15.9994           0   0.00000     -0.301140E-02
     23225 MEMB     188      PMPE     C1       CTL2    -0.800000E-01   12.0110           0   0.00000     -0.301140E-02
     23226 MEMB     188      PMPE     HA       HAL2     0.900000E-01   1.00800           0   0.00000     -0.301140E-02
     23227 MEMB     188      PMPE     HB       HAL2     0.900000E-01   1.00800           0   0.00000     -0.301140E-02
     23228 MEMB     188      PMPE     C2       CTL1     0.170000       12.0110           0   0.00000     -0.301140E-02
     23229 MEMB     188      PMPE     HS       HAL1     0.900000E-01   1.00800           0   0.00000     -0.301140E-02
     23230 MEMB     188      PMPE     O21      OSL     -0.490000       15.9994           0   0.00000     -0.301140E-02
     23231 MEMB     188      PMPE     C21      CL       0.900000       12.0110           0   0.00000     -0.301140E-02
     23232 MEMB     188      PMPE     O22      OBL     -0.630000       15.9994           0   0.00000     -0.301140E-02
     23233 MEMB     188      PMPE     C22      CTL2    -0.220000       12.0110           0   0.00000     -0.301140E-02
     23234 MEMB     188      PMPE     H2R      HAL2     0.900000E-01   1.00800           0   0.00000     -0.301140E-02
     23235 MEMB     188      PMPE     H2S      HAL2     0.900000E-01   1.00800           0   0.00000     -0.301140E-02
     23236 MEMB     188      PMPE     C3       CTL2     0.800000E-01   12.0110           0   0.00000     -0.301140E-02
     23237 MEMB     188      PMPE     HX       HAL2     0.900000E-01   1.00800           0   0.00000     -0.301140E-02
     23238 MEMB     188      PMPE     HY       HAL2     0.900000E-01   1.00800           0   0.00000     -0.301140E-02
     23239 MEMB     188      PMPE     O31      OSL     -0.490000       15.9994           0   0.00000     -0.301140E-02
     23240 MEMB     188      PMPE     C31      CL       0.900000       12.0110           0   0.00000     -0.301140E-02
     23241 MEMB     188      PMPE     O32      OBL     -0.630000       15.9994           0   0.00000     -0.301140E-02
     23242 MEMB     188      PMPE     C32      CTL2    -0.220000       12.0110           0   0.00000     -0.301140E-02
     23243 MEMB     188      PMPE     H2X      HAL2     0.900000E-01   1.00800           0   0.00000     -0.301140E-02
     23244 MEMB     188      PMPE     H2Y      HAL2     0.900000E-01   1.00800           0   0.00000     -0.301140E-02
     23245 MEMB     188      PMPE     C23      CTL2    -0.180000       12.0110           0   0.00000     -0.301140E-02
     23246 MEMB     188      PMPE     H3R      HAL2     0.900000E-01   1.00800           0   0.00000     -0.301140E-02
     23247 MEMB     188      PMPE     H3S      HAL2     0.900000E-01   1.00800           0   0.00000     -0.301140E-02
     23248 MEMB     188      PMPE     C24      CTL2    -0.180000       12.0110           0   0.00000     -0.301140E-02
     23249 MEMB     188      PMPE     H4R      HAL2     0.900000E-01   1.00800           0   0.00000     -0.301140E-02
     23250 MEMB     188      PMPE     H4S      HAL2     0.900000E-01   1.00800           0   0.00000     -0.301140E-02
     23251 MEMB     188      PMPE     C25      CTL2    -0.180000       12.0110           0   0.00000     -0.301140E-02
     23252 MEMB     188      PMPE     H5R      HAL2     0.900000E-01   1.00800           0   0.00000     -0.301140E-02
     23253 MEMB     188      PMPE     H5S      HAL2     0.900000E-01   1.00800           0   0.00000     -0.301140E-02
     23254 MEMB     188      PMPE     C26      CTL2    -0.180000       12.0110           0   0.00000     -0.301140E-02
     23255 MEMB     188      PMPE     H6R      HAL2     0.900000E-01   1.00800           0   0.00000     -0.301140E-02
     23256 MEMB     188      PMPE     H6S      HAL2     0.900000E-01   1.00800           0   0.00000     -0.301140E-02
     23257 MEMB     188      PMPE     C27      CTL2    -0.180000       12.0110           0   0.00000     -0.301140E-02
     23258 MEMB     188      PMPE     H7R      HAL2     0.900000E-01   1.00800           0   0.00000     -0.301140E-02
     23259 MEMB     188      PMPE     H7S      HAL2     0.900000E-01   1.00800           0   0.00000     -0.301140E-02
     23260 MEMB     188      PMPE     C28      CTL2    -0.180000       12.0110           0   0.00000     -0.301140E-02
     23261 MEMB     188      PMPE     H8R      HAL2     0.900000E-01   1.00800           0   0.00000     -0.301140E-02
     23262 MEMB     188      PMPE     H8S      HAL2     0.900000E-01   1.00800           0   0.00000     -0.301140E-02
     23263 MEMB     188      PMPE     C29      CG3RC1  -0.900000E-01   12.0110           0   0.00000     -0.301140E-02
     23264 MEMB     188      PMPE     H9R      HGA1     0.900000E-01   1.00800           0   0.00000     -0.301140E-02
     23265 MEMB     188      PMPE     C217     CG3C31  -0.180000       12.0110           0   0.00000     -0.301140E-02
     23266 MEMB     188      PMPE     H17R     HGA2     0.900000E-01   1.00800           0   0.00000     -0.301140E-02
     23267 MEMB     188      PMPE     H17S     HGA2     0.900000E-01   1.00800           0   0.00000     -0.301140E-02
     23268 MEMB     188      PMPE     C210     CG3RC1  -0.900000E-01   12.0110           0   0.00000     -0.301140E-02
     23269 MEMB     188      PMPE     H10R     HGA1     0.900000E-01   1.00800           0   0.00000     -0.301140E-02
     23270 MEMB     188      PMPE     C211     CTL2    -0.180000       12.0110           0   0.00000     -0.301140E-02
     23271 MEMB     188      PMPE     H11R     HAL2     0.900000E-01   1.00800           0   0.00000     -0.301140E-02
     23272 MEMB     188      PMPE     H11S     HAL2     0.900000E-01   1.00800           0   0.00000     -0.301140E-02
     23273 MEMB     188      PMPE     C212     CTL2    -0.180000       12.0110           0   0.00000     -0.301140E-02
     23274 MEMB     188      PMPE     H12R     HAL2     0.900000E-01   1.00800           0   0.00000     -0.301140E-02
     23275 MEMB     188      PMPE     H12S     HAL2     0.900000E-01   1.00800           0   0.00000     -0.301140E-02
     23276 MEMB     188      PMPE     C213     CTL2    -0.180000       12.0110           0   0.00000     -0.301140E-02
     23277 MEMB     188      PMPE     H13R     HAL2     0.900000E-01   1.00800           0   0.00000     -0.301140E-02
     23278 MEMB     188      PMPE     H13S     HAL2     0.900000E-01   1.00800           0   0.00000     -0.301140E-02
     23279 MEMB     188      PMPE     C214     CTL2    -0.180000       12.0110           0   0.00000     -0.301140E-02
     23280 MEMB     188      PMPE     H14R     HAL2     0.900000E-01   1.00800           0   0.00000     -0.301140E-02
     23281 MEMB     188      PMPE     H14S     HAL2     0.900000E-01   1.00800           0   0.00000     -0.301140E-02
     23282 MEMB     188      PMPE     C215     CTL2    -0.180000       12.0110           0   0.00000     -0.301140E-02
     23283 MEMB     188      PMPE     H15R     HAL2     0.900000E-01   1.00800           0   0.00000     -0.301140E-02
     23284 MEMB     188      PMPE     H15S     HAL2     0.900000E-01   1.00800           0   0.00000     -0.301140E-02
     23285 MEMB     188      PMPE     C216     CTL3    -0.270000       12.0110           0   0.00000     -0.301140E-02
     23286 MEMB     188      PMPE     H16R     HAL3     0.900000E-01   1.00800           0   0.00000     -0.301140E-02
     23287 MEMB     188      PMPE     H16S     HAL3     0.900000E-01   1.00800           0   0.00000     -0.301140E-02
     23288 MEMB     188      PMPE     H16T     HAL3     0.900000E-01   1.00800           0   0.00000     -0.301140E-02
     23289 MEMB     188      PMPE     C33      CTL2    -0.180000       12.0110           0   0.00000     -0.301140E-02
     23290 MEMB     188      PMPE     H3X      HAL2     0.900000E-01   1.00800           0   0.00000     -0.301140E-02
     23291 MEMB     188      PMPE     H3Y      HAL2     0.900000E-01   1.00800           0   0.00000     -0.301140E-02
     23292 MEMB     188      PMPE     C34      CTL2    -0.180000       12.0110           0   0.00000     -0.301140E-02
     23293 MEMB     188      PMPE     H4X      HAL2     0.900000E-01   1.00800           0   0.00000     -0.301140E-02
     23294 MEMB     188      PMPE     H4Y      HAL2     0.900000E-01   1.00800           0   0.00000     -0.301140E-02
     23295 MEMB     188      PMPE     C35      CTL2    -0.180000       12.0110           0   0.00000     -0.301140E-02
     23296 MEMB     188      PMPE     H5X      HAL2     0.900000E-01   1.00800           0   0.00000     -0.301140E-02
     23297 MEMB     188      PMPE     H5Y      HAL2     0.900000E-01   1.00800           0   0.00000     -0.301140E-02
     23298 MEMB     188      PMPE     C36      CTL2    -0.180000       12.0110           0   0.00000     -0.301140E-02
     23299 MEMB     188      PMPE     H6X      HAL2     0.900000E-01   1.00800           0   0.00000     -0.301140E-02
     23300 MEMB     188      PMPE     H6Y      HAL2     0.900000E-01   1.00800           0   0.00000     -0.301140E-02
     23301 MEMB     188      PMPE     C37      CTL2    -0.180000       12.0110           0   0.00000     -0.301140E-02
     23302 MEMB     188      PMPE     H7X      HAL2     0.900000E-01   1.00800           0   0.00000     -0.301140E-02
     23303 MEMB     188      PMPE     H7Y      HAL2     0.900000E-01   1.00800           0   0.00000     -0.301140E-02
     23304 MEMB     188      PMPE     C38      CTL2    -0.180000       12.0110           0   0.00000     -0.301140E-02
     23305 MEMB     188      PMPE     H8X      HAL2     0.900000E-01   1.00800           0   0.00000     -0.301140E-02
     23306 MEMB     188      PMPE     H8Y      HAL2     0.900000E-01   1.00800           0   0.00000     -0.301140E-02
     23307 MEMB     188      PMPE     C39      CTL2    -0.180000       12.0110           0   0.00000     -0.301140E-02
     23308 MEMB     188      PMPE     H9X      HAL2     0.900000E-01   1.00800           0   0.00000     -0.301140E-02
     23309 MEMB     188      PMPE     H9Y      HAL2     0.900000E-01   1.00800           0   0.00000     -0.301140E-02
     23310 MEMB     188      PMPE     C310     CTL2    -0.180000       12.0110           0   0.00000     -0.301140E-02
     23311 MEMB     188      PMPE     H10X     HAL2     0.900000E-01   1.00800           0   0.00000     -0.301140E-02
     23312 MEMB     188      PMPE     H10Y     HAL2     0.900000E-01   1.00800           0   0.00000     -0.301140E-02
     23313 MEMB     188      PMPE     C311     CTL2    -0.180000       12.0110           0   0.00000     -0.301140E-02
     23314 MEMB     188      PMPE     H11X     HAL2     0.900000E-01   1.00800           0   0.00000     -0.301140E-02
     23315 MEMB     188      PMPE     H11Y     HAL2     0.900000E-01   1.00800           0   0.00000     -0.301140E-02
     23316 MEMB     188      PMPE     C312     CTL2    -0.180000       12.0110           0   0.00000     -0.301140E-02
     23317 MEMB     188      PMPE     H12X     HAL2     0.900000E-01   1.00800           0   0.00000     -0.301140E-02
     23318 MEMB     188      PMPE     H12Y     HAL2     0.900000E-01   1.00800           0   0.00000     -0.301140E-02
     23319 MEMB     188      PMPE     C313     CTL2    -0.180000       12.0110           0   0.00000     -0.301140E-02
     23320 MEMB     188      PMPE     H13X     HAL2     0.900000E-01   1.00800           0   0.00000     -0.301140E-02
     23321 MEMB     188      PMPE     H13Y     HAL2     0.900000E-01   1.00800           0   0.00000     -0.301140E-02
     23322 MEMB     188      PMPE     C314     CTL2    -0.180000       12.0110           0   0.00000     -0.301140E-02
     23323 MEMB     188      PMPE     H14X     HAL2     0.900000E-01   1.00800           0   0.00000     -0.301140E-02
     23324 MEMB     188      PMPE     H14Y     HAL2     0.900000E-01   1.00800           0   0.00000     -0.301140E-02
     23325 MEMB     188      PMPE     C315     CTL2    -0.180000       12.0110           0   0.00000     -0.301140E-02
     23326 MEMB     188      PMPE     H15X     HAL2     0.900000E-01   1.00800           0   0.00000     -0.301140E-02
     23327 MEMB     188      PMPE     H15Y     HAL2     0.900000E-01   1.00800           0   0.00000     -0.301140E-02
     23328 MEMB     188      PMPE     C316     CTL3    -0.270000       12.0110           0   0.00000     -0.301140E-02
     23329 MEMB     188      PMPE     H16X     HAL3     0.900000E-01   1.00800           0   0.00000     -0.301140E-02
     23330 MEMB     188      PMPE     H16Y     HAL3     0.900000E-01   1.00800           0   0.00000     -0.301140E-02
     23331 MEMB     188      PMPE     H16Z     HAL3     0.900000E-01   1.00800           0   0.00000     -0.301140E-02
     23332 MEMB     189      PMPE     N        NH3L    -0.300000       14.0070           0   0.00000     -0.301140E-02
     23333 MEMB     189      PMPE     HN1      HCL      0.330000       1.00800           0   0.00000     -0.301140E-02
     23334 MEMB     189      PMPE     HN2      HCL      0.330000       1.00800           0   0.00000     -0.301140E-02
     23335 MEMB     189      PMPE     HN3      HCL      0.330000       1.00800           0   0.00000     -0.301140E-02
     23336 MEMB     189      PMPE     C12      CTL2     0.130000       12.0110           0   0.00000     -0.301140E-02
     23337 MEMB     189      PMPE     H12A     HAL2     0.900000E-01   1.00800           0   0.00000     -0.301140E-02
     23338 MEMB     189      PMPE     H12B     HAL2     0.900000E-01   1.00800           0   0.00000     -0.301140E-02
     23339 MEMB     189      PMPE     C11      CTL2    -0.800000E-01   12.0110           0   0.00000     -0.301140E-02
     23340 MEMB     189      PMPE     H11A     HAL2     0.900000E-01   1.00800           0   0.00000     -0.301140E-02
     23341 MEMB     189      PMPE     H11B     HAL2     0.900000E-01   1.00800           0   0.00000     -0.301140E-02
     23342 MEMB     189      PMPE     P        PL        1.50000       30.9740           0   0.00000     -0.301140E-02
     23343 MEMB     189      PMPE     O13      O2L     -0.780000       15.9994           0   0.00000     -0.301140E-02
     23344 MEMB     189      PMPE     O14      O2L     -0.780000       15.9994           0   0.00000     -0.301140E-02
     23345 MEMB     189      PMPE     O11      OSLP    -0.570000       15.9994           0   0.00000     -0.301140E-02
     23346 MEMB     189      PMPE     O12      OSLP    -0.570000       15.9994           0   0.00000     -0.301140E-02
     23347 MEMB     189      PMPE     C1       CTL2    -0.800000E-01   12.0110           0   0.00000     -0.301140E-02
     23348 MEMB     189      PMPE     HA       HAL2     0.900000E-01   1.00800           0   0.00000     -0.301140E-02
     23349 MEMB     189      PMPE     HB       HAL2     0.900000E-01   1.00800           0   0.00000     -0.301140E-02
     23350 MEMB     189      PMPE     C2       CTL1     0.170000       12.0110           0   0.00000     -0.301140E-02
     23351 MEMB     189      PMPE     HS       HAL1     0.900000E-01   1.00800           0   0.00000     -0.301140E-02
     23352 MEMB     189      PMPE     O21      OSL     -0.490000       15.9994           0   0.00000     -0.301140E-02
     23353 MEMB     189      PMPE     C21      CL       0.900000       12.0110           0   0.00000     -0.301140E-02
     23354 MEMB     189      PMPE     O22      OBL     -0.630000       15.9994           0   0.00000     -0.301140E-02
     23355 MEMB     189      PMPE     C22      CTL2    -0.220000       12.0110           0   0.00000     -0.301140E-02
     23356 MEMB     189      PMPE     H2R      HAL2     0.900000E-01   1.00800           0   0.00000     -0.301140E-02
     23357 MEMB     189      PMPE     H2S      HAL2     0.900000E-01   1.00800           0   0.00000     -0.301140E-02
     23358 MEMB     189      PMPE     C3       CTL2     0.800000E-01   12.0110           0   0.00000     -0.301140E-02
     23359 MEMB     189      PMPE     HX       HAL2     0.900000E-01   1.00800           0   0.00000     -0.301140E-02
     23360 MEMB     189      PMPE     HY       HAL2     0.900000E-01   1.00800           0   0.00000     -0.301140E-02
     23361 MEMB     189      PMPE     O31      OSL     -0.490000       15.9994           0   0.00000     -0.301140E-02
     23362 MEMB     189      PMPE     C31      CL       0.900000       12.0110           0   0.00000     -0.301140E-02
     23363 MEMB     189      PMPE     O32      OBL     -0.630000       15.9994           0   0.00000     -0.301140E-02
     23364 MEMB     189      PMPE     C32      CTL2    -0.220000       12.0110           0   0.00000     -0.301140E-02
     23365 MEMB     189      PMPE     H2X      HAL2     0.900000E-01   1.00800           0   0.00000     -0.301140E-02
     23366 MEMB     189      PMPE     H2Y      HAL2     0.900000E-01   1.00800           0   0.00000     -0.301140E-02
     23367 MEMB     189      PMPE     C23      CTL2    -0.180000       12.0110           0   0.00000     -0.301140E-02
     23368 MEMB     189      PMPE     H3R      HAL2     0.900000E-01   1.00800           0   0.00000     -0.301140E-02
     23369 MEMB     189      PMPE     H3S      HAL2     0.900000E-01   1.00800           0   0.00000     -0.301140E-02
     23370 MEMB     189      PMPE     C24      CTL2    -0.180000       12.0110           0   0.00000     -0.301140E-02
     23371 MEMB     189      PMPE     H4R      HAL2     0.900000E-01   1.00800           0   0.00000     -0.301140E-02
     23372 MEMB     189      PMPE     H4S      HAL2     0.900000E-01   1.00800           0   0.00000     -0.301140E-02
     23373 MEMB     189      PMPE     C25      CTL2    -0.180000       12.0110           0   0.00000     -0.301140E-02
     23374 MEMB     189      PMPE     H5R      HAL2     0.900000E-01   1.00800           0   0.00000     -0.301140E-02
     23375 MEMB     189      PMPE     H5S      HAL2     0.900000E-01   1.00800           0   0.00000     -0.301140E-02
     23376 MEMB     189      PMPE     C26      CTL2    -0.180000       12.0110           0   0.00000     -0.301140E-02
     23377 MEMB     189      PMPE     H6R      HAL2     0.900000E-01   1.00800           0   0.00000     -0.301140E-02
     23378 MEMB     189      PMPE     H6S      HAL2     0.900000E-01   1.00800           0   0.00000     -0.301140E-02
     23379 MEMB     189      PMPE     C27      CTL2    -0.180000       12.0110           0   0.00000     -0.301140E-02
     23380 MEMB     189      PMPE     H7R      HAL2     0.900000E-01   1.00800           0   0.00000     -0.301140E-02
     23381 MEMB     189      PMPE     H7S      HAL2     0.900000E-01   1.00800           0   0.00000     -0.301140E-02
     23382 MEMB     189      PMPE     C28      CTL2    -0.180000       12.0110           0   0.00000     -0.301140E-02
     23383 MEMB     189      PMPE     H8R      HAL2     0.900000E-01   1.00800           0   0.00000     -0.301140E-02
     23384 MEMB     189      PMPE     H8S      HAL2     0.900000E-01   1.00800           0   0.00000     -0.301140E-02
     23385 MEMB     189      PMPE     C29      CG3RC1  -0.900000E-01   12.0110           0   0.00000     -0.301140E-02
     23386 MEMB     189      PMPE     H9R      HGA1     0.900000E-01   1.00800           0   0.00000     -0.301140E-02
     23387 MEMB     189      PMPE     C217     CG3C31  -0.180000       12.0110           0   0.00000     -0.301140E-02
     23388 MEMB     189      PMPE     H17R     HGA2     0.900000E-01   1.00800           0   0.00000     -0.301140E-02
     23389 MEMB     189      PMPE     H17S     HGA2     0.900000E-01   1.00800           0   0.00000     -0.301140E-02
     23390 MEMB     189      PMPE     C210     CG3RC1  -0.900000E-01   12.0110           0   0.00000     -0.301140E-02
     23391 MEMB     189      PMPE     H10R     HGA1     0.900000E-01   1.00800           0   0.00000     -0.301140E-02
     23392 MEMB     189      PMPE     C211     CTL2    -0.180000       12.0110           0   0.00000     -0.301140E-02
     23393 MEMB     189      PMPE     H11R     HAL2     0.900000E-01   1.00800           0   0.00000     -0.301140E-02
     23394 MEMB     189      PMPE     H11S     HAL2     0.900000E-01   1.00800           0   0.00000     -0.301140E-02
     23395 MEMB     189      PMPE     C212     CTL2    -0.180000       12.0110           0   0.00000     -0.301140E-02
     23396 MEMB     189      PMPE     H12R     HAL2     0.900000E-01   1.00800           0   0.00000     -0.301140E-02
     23397 MEMB     189      PMPE     H12S     HAL2     0.900000E-01   1.00800           0   0.00000     -0.301140E-02
     23398 MEMB     189      PMPE     C213     CTL2    -0.180000       12.0110           0   0.00000     -0.301140E-02
     23399 MEMB     189      PMPE     H13R     HAL2     0.900000E-01   1.00800           0   0.00000     -0.301140E-02
     23400 MEMB     189      PMPE     H13S     HAL2     0.900000E-01   1.00800           0   0.00000     -0.301140E-02
     23401 MEMB     189      PMPE     C214     CTL2    -0.180000       12.0110           0   0.00000     -0.301140E-02
     23402 MEMB     189      PMPE     H14R     HAL2     0.900000E-01   1.00800           0   0.00000     -0.301140E-02
     23403 MEMB     189      PMPE     H14S     HAL2     0.900000E-01   1.00800           0   0.00000     -0.301140E-02
     23404 MEMB     189      PMPE     C215     CTL2    -0.180000       12.0110           0   0.00000     -0.301140E-02
     23405 MEMB     189      PMPE     H15R     HAL2     0.900000E-01   1.00800           0   0.00000     -0.301140E-02
     23406 MEMB     189      PMPE     H15S     HAL2     0.900000E-01   1.00800           0   0.00000     -0.301140E-02
     23407 MEMB     189      PMPE     C216     CTL3    -0.270000       12.0110           0   0.00000     -0.301140E-02
     23408 MEMB     189      PMPE     H16R     HAL3     0.900000E-01   1.00800           0   0.00000     -0.301140E-02
     23409 MEMB     189      PMPE     H16S     HAL3     0.900000E-01   1.00800           0   0.00000     -0.301140E-02
     23410 MEMB     189      PMPE     H16T     HAL3     0.900000E-01   1.00800           0   0.00000     -0.301140E-02
     23411 MEMB     189      PMPE     C33      CTL2    -0.180000       12.0110           0   0.00000     -0.301140E-02
     23412 MEMB     189      PMPE     H3X      HAL2     0.900000E-01   1.00800           0   0.00000     -0.301140E-02
     23413 MEMB     189      PMPE     H3Y      HAL2     0.900000E-01   1.00800           0   0.00000     -0.301140E-02
     23414 MEMB     189      PMPE     C34      CTL2    -0.180000       12.0110           0   0.00000     -0.301140E-02
     23415 MEMB     189      PMPE     H4X      HAL2     0.900000E-01   1.00800           0   0.00000     -0.301140E-02
     23416 MEMB     189      PMPE     H4Y      HAL2     0.900000E-01   1.00800           0   0.00000     -0.301140E-02
     23417 MEMB     189      PMPE     C35      CTL2    -0.180000       12.0110           0   0.00000     -0.301140E-02
     23418 MEMB     189      PMPE     H5X      HAL2     0.900000E-01   1.00800           0   0.00000     -0.301140E-02
     23419 MEMB     189      PMPE     H5Y      HAL2     0.900000E-01   1.00800           0   0.00000     -0.301140E-02
     23420 MEMB     189      PMPE     C36      CTL2    -0.180000       12.0110           0   0.00000     -0.301140E-02
     23421 MEMB     189      PMPE     H6X      HAL2     0.900000E-01   1.00800           0   0.00000     -0.301140E-02
     23422 MEMB     189      PMPE     H6Y      HAL2     0.900000E-01   1.00800           0   0.00000     -0.301140E-02
     23423 MEMB     189      PMPE     C37      CTL2    -0.180000       12.0110           0   0.00000     -0.301140E-02
     23424 MEMB     189      PMPE     H7X      HAL2     0.900000E-01   1.00800           0   0.00000     -0.301140E-02
     23425 MEMB     189      PMPE     H7Y      HAL2     0.900000E-01   1.00800           0   0.00000     -0.301140E-02
     23426 MEMB     189      PMPE     C38      CTL2    -0.180000       12.0110           0   0.00000     -0.301140E-02
     23427 MEMB     189      PMPE     H8X      HAL2     0.900000E-01   1.00800           0   0.00000     -0.301140E-02
     23428 MEMB     189      PMPE     H8Y      HAL2     0.900000E-01   1.00800           0   0.00000     -0.301140E-02
     23429 MEMB     189      PMPE     C39      CTL2    -0.180000       12.0110           0   0.00000     -0.301140E-02
     23430 MEMB     189      PMPE     H9X      HAL2     0.900000E-01   1.00800           0   0.00000     -0.301140E-02
     23431 MEMB     189      PMPE     H9Y      HAL2     0.900000E-01   1.00800           0   0.00000     -0.301140E-02
     23432 MEMB     189      PMPE     C310     CTL2    -0.180000       12.0110           0   0.00000     -0.301140E-02
     23433 MEMB     189      PMPE     H10X     HAL2     0.900000E-01   1.00800           0   0.00000     -0.301140E-02
     23434 MEMB     189      PMPE     H10Y     HAL2     0.900000E-01   1.00800           0   0.00000     -0.301140E-02
     23435 MEMB     189      PMPE     C311     CTL2    -0.180000       12.0110           0   0.00000     -0.301140E-02
     23436 MEMB     189      PMPE     H11X     HAL2     0.900000E-01   1.00800           0   0.00000     -0.301140E-02
     23437 MEMB     189      PMPE     H11Y     HAL2     0.900000E-01   1.00800           0   0.00000     -0.301140E-02
     23438 MEMB     189      PMPE     C312     CTL2    -0.180000       12.0110           0   0.00000     -0.301140E-02
     23439 MEMB     189      PMPE     H12X     HAL2     0.900000E-01   1.00800           0   0.00000     -0.301140E-02
     23440 MEMB     189      PMPE     H12Y     HAL2     0.900000E-01   1.00800           0   0.00000     -0.301140E-02
     23441 MEMB     189      PMPE     C313     CTL2    -0.180000       12.0110           0   0.00000     -0.301140E-02
     23442 MEMB     189      PMPE     H13X     HAL2     0.900000E-01   1.00800           0   0.00000     -0.301140E-02
     23443 MEMB     189      PMPE     H13Y     HAL2     0.900000E-01   1.00800           0   0.00000     -0.301140E-02
     23444 MEMB     189      PMPE     C314     CTL2    -0.180000       12.0110           0   0.00000     -0.301140E-02
     23445 MEMB     189      PMPE     H14X     HAL2     0.900000E-01   1.00800           0   0.00000     -0.301140E-02
     23446 MEMB     189      PMPE     H14Y     HAL2     0.900000E-01   1.00800           0   0.00000     -0.301140E-02
     23447 MEMB     189      PMPE     C315     CTL2    -0.180000       12.0110           0   0.00000     -0.301140E-02
     23448 MEMB     189      PMPE     H15X     HAL2     0.900000E-01   1.00800           0   0.00000     -0.301140E-02
     23449 MEMB     189      PMPE     H15Y     HAL2     0.900000E-01   1.00800           0   0.00000     -0.301140E-02
     23450 MEMB     189      PMPE     C316     CTL3    -0.270000       12.0110           0   0.00000     -0.301140E-02
     23451 MEMB     189      PMPE     H16X     HAL3     0.900000E-01   1.00800           0   0.00000     -0.301140E-02
     23452 MEMB     189      PMPE     H16Y     HAL3     0.900000E-01   1.00800           0   0.00000     -0.301140E-02
     23453 MEMB     189      PMPE     H16Z     HAL3     0.900000E-01   1.00800           0   0.00000     -0.301140E-02
     23454 MEMB     190      PMPE     N        NH3L    -0.300000       14.0070           0   0.00000     -0.301140E-02
     23455 MEMB     190      PMPE     HN1      HCL      0.330000       1.00800           0   0.00000     -0.301140E-02
     23456 MEMB     190      PMPE     HN2      HCL      0.330000       1.00800           0   0.00000     -0.301140E-02
     23457 MEMB     190      PMPE     HN3      HCL      0.330000       1.00800           0   0.00000     -0.301140E-02
     23458 MEMB     190      PMPE     C12      CTL2     0.130000       12.0110           0   0.00000     -0.301140E-02
     23459 MEMB     190      PMPE     H12A     HAL2     0.900000E-01   1.00800           0   0.00000     -0.301140E-02
     23460 MEMB     190      PMPE     H12B     HAL2     0.900000E-01   1.00800           0   0.00000     -0.301140E-02
     23461 MEMB     190      PMPE     C11      CTL2    -0.800000E-01   12.0110           0   0.00000     -0.301140E-02
     23462 MEMB     190      PMPE     H11A     HAL2     0.900000E-01   1.00800           0   0.00000     -0.301140E-02
     23463 MEMB     190      PMPE     H11B     HAL2     0.900000E-01   1.00800           0   0.00000     -0.301140E-02
     23464 MEMB     190      PMPE     P        PL        1.50000       30.9740           0   0.00000     -0.301140E-02
     23465 MEMB     190      PMPE     O13      O2L     -0.780000       15.9994           0   0.00000     -0.301140E-02
     23466 MEMB     190      PMPE     O14      O2L     -0.780000       15.9994           0   0.00000     -0.301140E-02
     23467 MEMB     190      PMPE     O11      OSLP    -0.570000       15.9994           0   0.00000     -0.301140E-02
     23468 MEMB     190      PMPE     O12      OSLP    -0.570000       15.9994           0   0.00000     -0.301140E-02
     23469 MEMB     190      PMPE     C1       CTL2    -0.800000E-01   12.0110           0   0.00000     -0.301140E-02
     23470 MEMB     190      PMPE     HA       HAL2     0.900000E-01   1.00800           0   0.00000     -0.301140E-02
     23471 MEMB     190      PMPE     HB       HAL2     0.900000E-01   1.00800           0   0.00000     -0.301140E-02
     23472 MEMB     190      PMPE     C2       CTL1     0.170000       12.0110           0   0.00000     -0.301140E-02
     23473 MEMB     190      PMPE     HS       HAL1     0.900000E-01   1.00800           0   0.00000     -0.301140E-02
     23474 MEMB     190      PMPE     O21      OSL     -0.490000       15.9994           0   0.00000     -0.301140E-02
     23475 MEMB     190      PMPE     C21      CL       0.900000       12.0110           0   0.00000     -0.301140E-02
     23476 MEMB     190      PMPE     O22      OBL     -0.630000       15.9994           0   0.00000     -0.301140E-02
     23477 MEMB     190      PMPE     C22      CTL2    -0.220000       12.0110           0   0.00000     -0.301140E-02
     23478 MEMB     190      PMPE     H2R      HAL2     0.900000E-01   1.00800           0   0.00000     -0.301140E-02
     23479 MEMB     190      PMPE     H2S      HAL2     0.900000E-01   1.00800           0   0.00000     -0.301140E-02
     23480 MEMB     190      PMPE     C3       CTL2     0.800000E-01   12.0110           0   0.00000     -0.301140E-02
     23481 MEMB     190      PMPE     HX       HAL2     0.900000E-01   1.00800           0   0.00000     -0.301140E-02
     23482 MEMB     190      PMPE     HY       HAL2     0.900000E-01   1.00800           0   0.00000     -0.301140E-02
     23483 MEMB     190      PMPE     O31      OSL     -0.490000       15.9994           0   0.00000     -0.301140E-02
     23484 MEMB     190      PMPE     C31      CL       0.900000       12.0110           0   0.00000     -0.301140E-02
     23485 MEMB     190      PMPE     O32      OBL     -0.630000       15.9994           0   0.00000     -0.301140E-02
     23486 MEMB     190      PMPE     C32      CTL2    -0.220000       12.0110           0   0.00000     -0.301140E-02
     23487 MEMB     190      PMPE     H2X      HAL2     0.900000E-01   1.00800           0   0.00000     -0.301140E-02
     23488 MEMB     190      PMPE     H2Y      HAL2     0.900000E-01   1.00800           0   0.00000     -0.301140E-02
     23489 MEMB     190      PMPE     C23      CTL2    -0.180000       12.0110           0   0.00000     -0.301140E-02
     23490 MEMB     190      PMPE     H3R      HAL2     0.900000E-01   1.00800           0   0.00000     -0.301140E-02
     23491 MEMB     190      PMPE     H3S      HAL2     0.900000E-01   1.00800           0   0.00000     -0.301140E-02
     23492 MEMB     190      PMPE     C24      CTL2    -0.180000       12.0110           0   0.00000     -0.301140E-02
     23493 MEMB     190      PMPE     H4R      HAL2     0.900000E-01   1.00800           0   0.00000     -0.301140E-02
     23494 MEMB     190      PMPE     H4S      HAL2     0.900000E-01   1.00800           0   0.00000     -0.301140E-02
     23495 MEMB     190      PMPE     C25      CTL2    -0.180000       12.0110           0   0.00000     -0.301140E-02
     23496 MEMB     190      PMPE     H5R      HAL2     0.900000E-01   1.00800           0   0.00000     -0.301140E-02
     23497 MEMB     190      PMPE     H5S      HAL2     0.900000E-01   1.00800           0   0.00000     -0.301140E-02
     23498 MEMB     190      PMPE     C26      CTL2    -0.180000       12.0110           0   0.00000     -0.301140E-02
     23499 MEMB     190      PMPE     H6R      HAL2     0.900000E-01   1.00800           0   0.00000     -0.301140E-02
     23500 MEMB     190      PMPE     H6S      HAL2     0.900000E-01   1.00800           0   0.00000     -0.301140E-02
     23501 MEMB     190      PMPE     C27      CTL2    -0.180000       12.0110           0   0.00000     -0.301140E-02
     23502 MEMB     190      PMPE     H7R      HAL2     0.900000E-01   1.00800           0   0.00000     -0.301140E-02
     23503 MEMB     190      PMPE     H7S      HAL2     0.900000E-01   1.00800           0   0.00000     -0.301140E-02
     23504 MEMB     190      PMPE     C28      CTL2    -0.180000       12.0110           0   0.00000     -0.301140E-02
     23505 MEMB     190      PMPE     H8R      HAL2     0.900000E-01   1.00800           0   0.00000     -0.301140E-02
     23506 MEMB     190      PMPE     H8S      HAL2     0.900000E-01   1.00800           0   0.00000     -0.301140E-02
     23507 MEMB     190      PMPE     C29      CG3RC1  -0.900000E-01   12.0110           0   0.00000     -0.301140E-02
     23508 MEMB     190      PMPE     H9R      HGA1     0.900000E-01   1.00800           0   0.00000     -0.301140E-02
     23509 MEMB     190      PMPE     C217     CG3C31  -0.180000       12.0110           0   0.00000     -0.301140E-02
     23510 MEMB     190      PMPE     H17R     HGA2     0.900000E-01   1.00800           0   0.00000     -0.301140E-02
     23511 MEMB     190      PMPE     H17S     HGA2     0.900000E-01   1.00800           0   0.00000     -0.301140E-02
     23512 MEMB     190      PMPE     C210     CG3RC1  -0.900000E-01   12.0110           0   0.00000     -0.301140E-02
     23513 MEMB     190      PMPE     H10R     HGA1     0.900000E-01   1.00800           0   0.00000     -0.301140E-02
     23514 MEMB     190      PMPE     C211     CTL2    -0.180000       12.0110           0   0.00000     -0.301140E-02
     23515 MEMB     190      PMPE     H11R     HAL2     0.900000E-01   1.00800           0   0.00000     -0.301140E-02
     23516 MEMB     190      PMPE     H11S     HAL2     0.900000E-01   1.00800           0   0.00000     -0.301140E-02
     23517 MEMB     190      PMPE     C212     CTL2    -0.180000       12.0110           0   0.00000     -0.301140E-02
     23518 MEMB     190      PMPE     H12R     HAL2     0.900000E-01   1.00800           0   0.00000     -0.301140E-02
     23519 MEMB     190      PMPE     H12S     HAL2     0.900000E-01   1.00800           0   0.00000     -0.301140E-02
     23520 MEMB     190      PMPE     C213     CTL2    -0.180000       12.0110           0   0.00000     -0.301140E-02
     23521 MEMB     190      PMPE     H13R     HAL2     0.900000E-01   1.00800           0   0.00000     -0.301140E-02
     23522 MEMB     190      PMPE     H13S     HAL2     0.900000E-01   1.00800           0   0.00000     -0.301140E-02
     23523 MEMB     190      PMPE     C214     CTL2    -0.180000       12.0110           0   0.00000     -0.301140E-02
     23524 MEMB     190      PMPE     H14R     HAL2     0.900000E-01   1.00800           0   0.00000     -0.301140E-02
     23525 MEMB     190      PMPE     H14S     HAL2     0.900000E-01   1.00800           0   0.00000     -0.301140E-02
     23526 MEMB     190      PMPE     C215     CTL2    -0.180000       12.0110           0   0.00000     -0.301140E-02
     23527 MEMB     190      PMPE     H15R     HAL2     0.900000E-01   1.00800           0   0.00000     -0.301140E-02
     23528 MEMB     190      PMPE     H15S     HAL2     0.900000E-01   1.00800           0   0.00000     -0.301140E-02
     23529 MEMB     190      PMPE     C216     CTL3    -0.270000       12.0110           0   0.00000     -0.301140E-02
     23530 MEMB     190      PMPE     H16R     HAL3     0.900000E-01   1.00800           0   0.00000     -0.301140E-02
     23531 MEMB     190      PMPE     H16S     HAL3     0.900000E-01   1.00800           0   0.00000     -0.301140E-02
     23532 MEMB     190      PMPE     H16T     HAL3     0.900000E-01   1.00800           0   0.00000     -0.301140E-02
     23533 MEMB     190      PMPE     C33      CTL2    -0.180000       12.0110           0   0.00000     -0.301140E-02
     23534 MEMB     190      PMPE     H3X      HAL2     0.900000E-01   1.00800           0   0.00000     -0.301140E-02
     23535 MEMB     190      PMPE     H3Y      HAL2     0.900000E-01   1.00800           0   0.00000     -0.301140E-02
     23536 MEMB     190      PMPE     C34      CTL2    -0.180000       12.0110           0   0.00000     -0.301140E-02
     23537 MEMB     190      PMPE     H4X      HAL2     0.900000E-01   1.00800           0   0.00000     -0.301140E-02
     23538 MEMB     190      PMPE     H4Y      HAL2     0.900000E-01   1.00800           0   0.00000     -0.301140E-02
     23539 MEMB     190      PMPE     C35      CTL2    -0.180000       12.0110           0   0.00000     -0.301140E-02
     23540 MEMB     190      PMPE     H5X      HAL2     0.900000E-01   1.00800           0   0.00000     -0.301140E-02
     23541 MEMB     190      PMPE     H5Y      HAL2     0.900000E-01   1.00800           0   0.00000     -0.301140E-02
     23542 MEMB     190      PMPE     C36      CTL2    -0.180000       12.0110           0   0.00000     -0.301140E-02
     23543 MEMB     190      PMPE     H6X      HAL2     0.900000E-01   1.00800           0   0.00000     -0.301140E-02
     23544 MEMB     190      PMPE     H6Y      HAL2     0.900000E-01   1.00800           0   0.00000     -0.301140E-02
     23545 MEMB     190      PMPE     C37      CTL2    -0.180000       12.0110           0   0.00000     -0.301140E-02
     23546 MEMB     190      PMPE     H7X      HAL2     0.900000E-01   1.00800           0   0.00000     -0.301140E-02
     23547 MEMB     190      PMPE     H7Y      HAL2     0.900000E-01   1.00800           0   0.00000     -0.301140E-02
     23548 MEMB     190      PMPE     C38      CTL2    -0.180000       12.0110           0   0.00000     -0.301140E-02
     23549 MEMB     190      PMPE     H8X      HAL2     0.900000E-01   1.00800           0   0.00000     -0.301140E-02
     23550 MEMB     190      PMPE     H8Y      HAL2     0.900000E-01   1.00800           0   0.00000     -0.301140E-02
     23551 MEMB     190      PMPE     C39      CTL2    -0.180000       12.0110           0   0.00000     -0.301140E-02
     23552 MEMB     190      PMPE     H9X      HAL2     0.900000E-01   1.00800           0   0.00000     -0.301140E-02
     23553 MEMB     190      PMPE     H9Y      HAL2     0.900000E-01   1.00800           0   0.00000     -0.301140E-02
     23554 MEMB     190      PMPE     C310     CTL2    -0.180000       12.0110           0   0.00000     -0.301140E-02
     23555 MEMB     190      PMPE     H10X     HAL2     0.900000E-01   1.00800           0   0.00000     -0.301140E-02
     23556 MEMB     190      PMPE     H10Y     HAL2     0.900000E-01   1.00800           0   0.00000     -0.301140E-02
     23557 MEMB     190      PMPE     C311     CTL2    -0.180000       12.0110           0   0.00000     -0.301140E-02
     23558 MEMB     190      PMPE     H11X     HAL2     0.900000E-01   1.00800           0   0.00000     -0.301140E-02
     23559 MEMB     190      PMPE     H11Y     HAL2     0.900000E-01   1.00800           0   0.00000     -0.301140E-02
     23560 MEMB     190      PMPE     C312     CTL2    -0.180000       12.0110           0   0.00000     -0.301140E-02
     23561 MEMB     190      PMPE     H12X     HAL2     0.900000E-01   1.00800           0   0.00000     -0.301140E-02
     23562 MEMB     190      PMPE     H12Y     HAL2     0.900000E-01   1.00800           0   0.00000     -0.301140E-02
     23563 MEMB     190      PMPE     C313     CTL2    -0.180000       12.0110           0   0.00000     -0.301140E-02
     23564 MEMB     190      PMPE     H13X     HAL2     0.900000E-01   1.00800           0   0.00000     -0.301140E-02
     23565 MEMB     190      PMPE     H13Y     HAL2     0.900000E-01   1.00800           0   0.00000     -0.301140E-02
     23566 MEMB     190      PMPE     C314     CTL2    -0.180000       12.0110           0   0.00000     -0.301140E-02
     23567 MEMB     190      PMPE     H14X     HAL2     0.900000E-01   1.00800           0   0.00000     -0.301140E-02
     23568 MEMB     190      PMPE     H14Y     HAL2     0.900000E-01   1.00800           0   0.00000     -0.301140E-02
     23569 MEMB     190      PMPE     C315     CTL2    -0.180000       12.0110           0   0.00000     -0.301140E-02
     23570 MEMB     190      PMPE     H15X     HAL2     0.900000E-01   1.00800           0   0.00000     -0.301140E-02
     23571 MEMB     190      PMPE     H15Y     HAL2     0.900000E-01   1.00800           0   0.00000     -0.301140E-02
     23572 MEMB     190      PMPE     C316     CTL3    -0.270000       12.0110           0   0.00000     -0.301140E-02
     23573 MEMB     190      PMPE     H16X     HAL3     0.900000E-01   1.00800           0   0.00000     -0.301140E-02
     23574 MEMB     190      PMPE     H16Y     HAL3     0.900000E-01   1.00800           0   0.00000     -0.301140E-02
     23575 MEMB     190      PMPE     H16Z     HAL3     0.900000E-01   1.00800           0   0.00000     -0.301140E-02
     23576 MEMB     191      POPE     N        NH3L    -0.300000       14.0070           0   0.00000     -0.301140E-02
     23577 MEMB     191      POPE     HN1      HCL      0.330000       1.00800           0   0.00000     -0.301140E-02
     23578 MEMB     191      POPE     HN2      HCL      0.330000       1.00800           0   0.00000     -0.301140E-02
     23579 MEMB     191      POPE     HN3      HCL      0.330000       1.00800           0   0.00000     -0.301140E-02
     23580 MEMB     191      POPE     C12      CTL2     0.130000       12.0110           0   0.00000     -0.301140E-02
     23581 MEMB     191      POPE     H12A     HAL2     0.900000E-01   1.00800           0   0.00000     -0.301140E-02
     23582 MEMB     191      POPE     H12B     HAL2     0.900000E-01   1.00800           0   0.00000     -0.301140E-02
     23583 MEMB     191      POPE     C11      CTL2    -0.800000E-01   12.0110           0   0.00000     -0.301140E-02
     23584 MEMB     191      POPE     H11A     HAL2     0.900000E-01   1.00800           0   0.00000     -0.301140E-02
     23585 MEMB     191      POPE     H11B     HAL2     0.900000E-01   1.00800           0   0.00000     -0.301140E-02
     23586 MEMB     191      POPE     P        PL        1.50000       30.9740           0   0.00000     -0.301140E-02
     23587 MEMB     191      POPE     O13      O2L     -0.780000       15.9994           0   0.00000     -0.301140E-02
     23588 MEMB     191      POPE     O14      O2L     -0.780000       15.9994           0   0.00000     -0.301140E-02
     23589 MEMB     191      POPE     O11      OSLP    -0.570000       15.9994           0   0.00000     -0.301140E-02
     23590 MEMB     191      POPE     O12      OSLP    -0.570000       15.9994           0   0.00000     -0.301140E-02
     23591 MEMB     191      POPE     C1       CTL2    -0.800000E-01   12.0110           0   0.00000     -0.301140E-02
     23592 MEMB     191      POPE     HA       HAL2     0.900000E-01   1.00800           0   0.00000     -0.301140E-02
     23593 MEMB     191      POPE     HB       HAL2     0.900000E-01   1.00800           0   0.00000     -0.301140E-02
     23594 MEMB     191      POPE     C2       CTL1     0.170000       12.0110           0   0.00000     -0.301140E-02
     23595 MEMB     191      POPE     HS       HAL1     0.900000E-01   1.00800           0   0.00000     -0.301140E-02
     23596 MEMB     191      POPE     O21      OSL     -0.490000       15.9994           0   0.00000     -0.301140E-02
     23597 MEMB     191      POPE     C21      CL       0.900000       12.0110           0   0.00000     -0.301140E-02
     23598 MEMB     191      POPE     O22      OBL     -0.630000       15.9994           0   0.00000     -0.301140E-02
     23599 MEMB     191      POPE     C22      CTL2    -0.220000       12.0110           0   0.00000     -0.301140E-02
     23600 MEMB     191      POPE     H2R      HAL2     0.900000E-01   1.00800           0   0.00000     -0.301140E-02
     23601 MEMB     191      POPE     H2S      HAL2     0.900000E-01   1.00800           0   0.00000     -0.301140E-02
     23602 MEMB     191      POPE     C3       CTL2     0.800000E-01   12.0110           0   0.00000     -0.301140E-02
     23603 MEMB     191      POPE     HX       HAL2     0.900000E-01   1.00800           0   0.00000     -0.301140E-02
     23604 MEMB     191      POPE     HY       HAL2     0.900000E-01   1.00800           0   0.00000     -0.301140E-02
     23605 MEMB     191      POPE     O31      OSL     -0.490000       15.9994           0   0.00000     -0.301140E-02
     23606 MEMB     191      POPE     C31      CL       0.900000       12.0110           0   0.00000     -0.301140E-02
     23607 MEMB     191      POPE     O32      OBL     -0.630000       15.9994           0   0.00000     -0.301140E-02
     23608 MEMB     191      POPE     C32      CTL2    -0.220000       12.0110           0   0.00000     -0.301140E-02
     23609 MEMB     191      POPE     H2X      HAL2     0.900000E-01   1.00800           0   0.00000     -0.301140E-02
     23610 MEMB     191      POPE     H2Y      HAL2     0.900000E-01   1.00800           0   0.00000     -0.301140E-02
     23611 MEMB     191      POPE     C23      CTL2    -0.180000       12.0110           0   0.00000     -0.301140E-02
     23612 MEMB     191      POPE     H3R      HAL2     0.900000E-01   1.00800           0   0.00000     -0.301140E-02
     23613 MEMB     191      POPE     H3S      HAL2     0.900000E-01   1.00800           0   0.00000     -0.301140E-02
     23614 MEMB     191      POPE     C24      CTL2    -0.180000       12.0110           0   0.00000     -0.301140E-02
     23615 MEMB     191      POPE     H4R      HAL2     0.900000E-01   1.00800           0   0.00000     -0.301140E-02
     23616 MEMB     191      POPE     H4S      HAL2     0.900000E-01   1.00800           0   0.00000     -0.301140E-02
     23617 MEMB     191      POPE     C25      CTL2    -0.180000       12.0110           0   0.00000     -0.301140E-02
     23618 MEMB     191      POPE     H5R      HAL2     0.900000E-01   1.00800           0   0.00000     -0.301140E-02
     23619 MEMB     191      POPE     H5S      HAL2     0.900000E-01   1.00800           0   0.00000     -0.301140E-02
     23620 MEMB     191      POPE     C26      CTL2    -0.180000       12.0110           0   0.00000     -0.301140E-02
     23621 MEMB     191      POPE     H6R      HAL2     0.900000E-01   1.00800           0   0.00000     -0.301140E-02
     23622 MEMB     191      POPE     H6S      HAL2     0.900000E-01   1.00800           0   0.00000     -0.301140E-02
     23623 MEMB     191      POPE     C27      CTL2    -0.180000       12.0110           0   0.00000     -0.301140E-02
     23624 MEMB     191      POPE     H7R      HAL2     0.900000E-01   1.00800           0   0.00000     -0.301140E-02
     23625 MEMB     191      POPE     H7S      HAL2     0.900000E-01   1.00800           0   0.00000     -0.301140E-02
     23626 MEMB     191      POPE     C28      CTL2    -0.180000       12.0110           0   0.00000     -0.301140E-02
     23627 MEMB     191      POPE     H8R      HAL2     0.900000E-01   1.00800           0   0.00000     -0.301140E-02
     23628 MEMB     191      POPE     H8S      HAL2     0.900000E-01   1.00800           0   0.00000     -0.301140E-02
     23629 MEMB     191      POPE     C29      CEL1    -0.150000       12.0110           0   0.00000     -0.301140E-02
     23630 MEMB     191      POPE     H91      HEL1     0.150000       1.00800           0   0.00000     -0.301140E-02
     23631 MEMB     191      POPE     C210     CEL1    -0.150000       12.0110           0   0.00000     -0.301140E-02
     23632 MEMB     191      POPE     H101     HEL1     0.150000       1.00800           0   0.00000     -0.301140E-02
     23633 MEMB     191      POPE     C211     CTL2    -0.180000       12.0110           0   0.00000     -0.301140E-02
     23634 MEMB     191      POPE     H11R     HAL2     0.900000E-01   1.00800           0   0.00000     -0.301140E-02
     23635 MEMB     191      POPE     H11S     HAL2     0.900000E-01   1.00800           0   0.00000     -0.301140E-02
     23636 MEMB     191      POPE     C212     CTL2    -0.180000       12.0110           0   0.00000     -0.301140E-02
     23637 MEMB     191      POPE     H12R     HAL2     0.900000E-01   1.00800           0   0.00000     -0.301140E-02
     23638 MEMB     191      POPE     H12S     HAL2     0.900000E-01   1.00800           0   0.00000     -0.301140E-02
     23639 MEMB     191      POPE     C213     CTL2    -0.180000       12.0110           0   0.00000     -0.301140E-02
     23640 MEMB     191      POPE     H13R     HAL2     0.900000E-01   1.00800           0   0.00000     -0.301140E-02
     23641 MEMB     191      POPE     H13S     HAL2     0.900000E-01   1.00800           0   0.00000     -0.301140E-02
     23642 MEMB     191      POPE     C214     CTL2    -0.180000       12.0110           0   0.00000     -0.301140E-02
     23643 MEMB     191      POPE     H14R     HAL2     0.900000E-01   1.00800           0   0.00000     -0.301140E-02
     23644 MEMB     191      POPE     H14S     HAL2     0.900000E-01   1.00800           0   0.00000     -0.301140E-02
     23645 MEMB     191      POPE     C215     CTL2    -0.180000       12.0110           0   0.00000     -0.301140E-02
     23646 MEMB     191      POPE     H15R     HAL2     0.900000E-01   1.00800           0   0.00000     -0.301140E-02
     23647 MEMB     191      POPE     H15S     HAL2     0.900000E-01   1.00800           0   0.00000     -0.301140E-02
     23648 MEMB     191      POPE     C216     CTL2    -0.180000       12.0110           0   0.00000     -0.301140E-02
     23649 MEMB     191      POPE     H16R     HAL2     0.900000E-01   1.00800           0   0.00000     -0.301140E-02
     23650 MEMB     191      POPE     H16S     HAL2     0.900000E-01   1.00800           0   0.00000     -0.301140E-02
     23651 MEMB     191      POPE     C217     CTL2    -0.180000       12.0110           0   0.00000     -0.301140E-02
     23652 MEMB     191      POPE     H17R     HAL2     0.900000E-01   1.00800           0   0.00000     -0.301140E-02
     23653 MEMB     191      POPE     H17S     HAL2     0.900000E-01   1.00800           0   0.00000     -0.301140E-02
     23654 MEMB     191      POPE     C218     CTL3    -0.270000       12.0110           0   0.00000     -0.301140E-02
     23655 MEMB     191      POPE     H18R     HAL3     0.900000E-01   1.00800           0   0.00000     -0.301140E-02
     23656 MEMB     191      POPE     H18S     HAL3     0.900000E-01   1.00800           0   0.00000     -0.301140E-02
     23657 MEMB     191      POPE     H18T     HAL3     0.900000E-01   1.00800           0   0.00000     -0.301140E-02
     23658 MEMB     191      POPE     C33      CTL2    -0.180000       12.0110           0   0.00000     -0.301140E-02
     23659 MEMB     191      POPE     H3X      HAL2     0.900000E-01   1.00800           0   0.00000     -0.301140E-02
     23660 MEMB     191      POPE     H3Y      HAL2     0.900000E-01   1.00800           0   0.00000     -0.301140E-02
     23661 MEMB     191      POPE     C34      CTL2    -0.180000       12.0110           0   0.00000     -0.301140E-02
     23662 MEMB     191      POPE     H4X      HAL2     0.900000E-01   1.00800           0   0.00000     -0.301140E-02
     23663 MEMB     191      POPE     H4Y      HAL2     0.900000E-01   1.00800           0   0.00000     -0.301140E-02
     23664 MEMB     191      POPE     C35      CTL2    -0.180000       12.0110           0   0.00000     -0.301140E-02
     23665 MEMB     191      POPE     H5X      HAL2     0.900000E-01   1.00800           0   0.00000     -0.301140E-02
     23666 MEMB     191      POPE     H5Y      HAL2     0.900000E-01   1.00800           0   0.00000     -0.301140E-02
     23667 MEMB     191      POPE     C36      CTL2    -0.180000       12.0110           0   0.00000     -0.301140E-02
     23668 MEMB     191      POPE     H6X      HAL2     0.900000E-01   1.00800           0   0.00000     -0.301140E-02
     23669 MEMB     191      POPE     H6Y      HAL2     0.900000E-01   1.00800           0   0.00000     -0.301140E-02
     23670 MEMB     191      POPE     C37      CTL2    -0.180000       12.0110           0   0.00000     -0.301140E-02
     23671 MEMB     191      POPE     H7X      HAL2     0.900000E-01   1.00800           0   0.00000     -0.301140E-02
     23672 MEMB     191      POPE     H7Y      HAL2     0.900000E-01   1.00800           0   0.00000     -0.301140E-02
     23673 MEMB     191      POPE     C38      CTL2    -0.180000       12.0110           0   0.00000     -0.301140E-02
     23674 MEMB     191      POPE     H8X      HAL2     0.900000E-01   1.00800           0   0.00000     -0.301140E-02
     23675 MEMB     191      POPE     H8Y      HAL2     0.900000E-01   1.00800           0   0.00000     -0.301140E-02
     23676 MEMB     191      POPE     C39      CTL2    -0.180000       12.0110           0   0.00000     -0.301140E-02
     23677 MEMB     191      POPE     H9X      HAL2     0.900000E-01   1.00800           0   0.00000     -0.301140E-02
     23678 MEMB     191      POPE     H9Y      HAL2     0.900000E-01   1.00800           0   0.00000     -0.301140E-02
     23679 MEMB     191      POPE     C310     CTL2    -0.180000       12.0110           0   0.00000     -0.301140E-02
     23680 MEMB     191      POPE     H10X     HAL2     0.900000E-01   1.00800           0   0.00000     -0.301140E-02
     23681 MEMB     191      POPE     H10Y     HAL2     0.900000E-01   1.00800           0   0.00000     -0.301140E-02
     23682 MEMB     191      POPE     C311     CTL2    -0.180000       12.0110           0   0.00000     -0.301140E-02
     23683 MEMB     191      POPE     H11X     HAL2     0.900000E-01   1.00800           0   0.00000     -0.301140E-02
     23684 MEMB     191      POPE     H11Y     HAL2     0.900000E-01   1.00800           0   0.00000     -0.301140E-02
     23685 MEMB     191      POPE     C312     CTL2    -0.180000       12.0110           0   0.00000     -0.301140E-02
     23686 MEMB     191      POPE     H12X     HAL2     0.900000E-01   1.00800           0   0.00000     -0.301140E-02
     23687 MEMB     191      POPE     H12Y     HAL2     0.900000E-01   1.00800           0   0.00000     -0.301140E-02
     23688 MEMB     191      POPE     C313     CTL2    -0.180000       12.0110           0   0.00000     -0.301140E-02
     23689 MEMB     191      POPE     H13X     HAL2     0.900000E-01   1.00800           0   0.00000     -0.301140E-02
     23690 MEMB     191      POPE     H13Y     HAL2     0.900000E-01   1.00800           0   0.00000     -0.301140E-02
     23691 MEMB     191      POPE     C314     CTL2    -0.180000       12.0110           0   0.00000     -0.301140E-02
     23692 MEMB     191      POPE     H14X     HAL2     0.900000E-01   1.00800           0   0.00000     -0.301140E-02
     23693 MEMB     191      POPE     H14Y     HAL2     0.900000E-01   1.00800           0   0.00000     -0.301140E-02
     23694 MEMB     191      POPE     C315     CTL2    -0.180000       12.0110           0   0.00000     -0.301140E-02
     23695 MEMB     191      POPE     H15X     HAL2     0.900000E-01   1.00800           0   0.00000     -0.301140E-02
     23696 MEMB     191      POPE     H15Y     HAL2     0.900000E-01   1.00800           0   0.00000     -0.301140E-02
     23697 MEMB     191      POPE     C316     CTL3    -0.270000       12.0110           0   0.00000     -0.301140E-02
     23698 MEMB     191      POPE     H16X     HAL3     0.900000E-01   1.00800           0   0.00000     -0.301140E-02
     23699 MEMB     191      POPE     H16Y     HAL3     0.900000E-01   1.00800           0   0.00000     -0.301140E-02
     23700 MEMB     191      POPE     H16Z     HAL3     0.900000E-01   1.00800           0   0.00000     -0.301140E-02
     23701 MEMB     192      PYPG     C13      CTL2     0.500000E-01   12.0110           0   0.00000     -0.301140E-02
     23702 MEMB     192      PYPG     H13A     HAL2     0.900000E-01   1.00800           0   0.00000     -0.301140E-02
     23703 MEMB     192      PYPG     H13B     HAL2     0.900000E-01   1.00800           0   0.00000     -0.301140E-02
     23704 MEMB     192      PYPG     OC3      OHL     -0.660000       15.9994           0   0.00000     -0.301140E-02
     23705 MEMB     192      PYPG     HO3      HOL      0.430000       1.00800           0   0.00000     -0.301140E-02
     23706 MEMB     192      PYPG     C12      CTL1     0.140000       12.0110           0   0.00000     -0.301140E-02
     23707 MEMB     192      PYPG     H12A     HAL1     0.900000E-01   1.00800           0   0.00000     -0.301140E-02
     23708 MEMB     192      PYPG     OC2      OHL     -0.660000       15.9994           0   0.00000     -0.301140E-02
     23709 MEMB     192      PYPG     HO2      HOL      0.430000       1.00800           0   0.00000     -0.301140E-02
     23710 MEMB     192      PYPG     C11      CTL2    -0.800000E-01   12.0110           0   0.00000     -0.301140E-02
     23711 MEMB     192      PYPG     H11A     HAL2     0.900000E-01   1.00800           0   0.00000     -0.301140E-02
     23712 MEMB     192      PYPG     H11B     HAL2     0.900000E-01   1.00800           0   0.00000     -0.301140E-02
     23713 MEMB     192      PYPG     P        PL        1.50000       30.9740           0   0.00000     -0.301140E-02
     23714 MEMB     192      PYPG     O13      O2L     -0.780000       15.9994           0   0.00000     -0.301140E-02
     23715 MEMB     192      PYPG     O14      O2L     -0.780000       15.9994           0   0.00000     -0.301140E-02
     23716 MEMB     192      PYPG     O11      OSLP    -0.570000       15.9994           0   0.00000     -0.301140E-02
     23717 MEMB     192      PYPG     O12      OSLP    -0.570000       15.9994           0   0.00000     -0.301140E-02
     23718 MEMB     192      PYPG     C1       CTL2    -0.800000E-01   12.0110           0   0.00000     -0.301140E-02
     23719 MEMB     192      PYPG     HA       HAL2     0.900000E-01   1.00800           0   0.00000     -0.301140E-02
     23720 MEMB     192      PYPG     HB       HAL2     0.900000E-01   1.00800           0   0.00000     -0.301140E-02
     23721 MEMB     192      PYPG     C2       CTL1     0.170000       12.0110           0   0.00000     -0.301140E-02
     23722 MEMB     192      PYPG     HS       HAL1     0.900000E-01   1.00800           0   0.00000     -0.301140E-02
     23723 MEMB     192      PYPG     O21      OSL     -0.490000       15.9994           0   0.00000     -0.301140E-02
     23724 MEMB     192      PYPG     C21      CL       0.900000       12.0110           0   0.00000     -0.301140E-02
     23725 MEMB     192      PYPG     O22      OBL     -0.630000       15.9994           0   0.00000     -0.301140E-02
     23726 MEMB     192      PYPG     C22      CTL2    -0.220000       12.0110           0   0.00000     -0.301140E-02
     23727 MEMB     192      PYPG     H2R      HAL2     0.900000E-01   1.00800           0   0.00000     -0.301140E-02
     23728 MEMB     192      PYPG     H2S      HAL2     0.900000E-01   1.00800           0   0.00000     -0.301140E-02
     23729 MEMB     192      PYPG     C3       CTL2     0.800000E-01   12.0110           0   0.00000     -0.301140E-02
     23730 MEMB     192      PYPG     HX       HAL2     0.900000E-01   1.00800           0   0.00000     -0.301140E-02
     23731 MEMB     192      PYPG     HY       HAL2     0.900000E-01   1.00800           0   0.00000     -0.301140E-02
     23732 MEMB     192      PYPG     O31      OSL     -0.490000       15.9994           0   0.00000     -0.301140E-02
     23733 MEMB     192      PYPG     C31      CL       0.900000       12.0110           0   0.00000     -0.301140E-02
     23734 MEMB     192      PYPG     O32      OBL     -0.630000       15.9994           0   0.00000     -0.301140E-02
     23735 MEMB     192      PYPG     C32      CTL2    -0.220000       12.0110           0   0.00000     -0.301140E-02
     23736 MEMB     192      PYPG     H2X      HAL2     0.900000E-01   1.00800           0   0.00000     -0.301140E-02
     23737 MEMB     192      PYPG     H2Y      HAL2     0.900000E-01   1.00800           0   0.00000     -0.301140E-02
     23738 MEMB     192      PYPG     C23      CTL2    -0.180000       12.0110           0   0.00000     -0.301140E-02
     23739 MEMB     192      PYPG     H3R      HAL2     0.900000E-01   1.00800           0   0.00000     -0.301140E-02
     23740 MEMB     192      PYPG     H3S      HAL2     0.900000E-01   1.00800           0   0.00000     -0.301140E-02
     23741 MEMB     192      PYPG     C24      CTL2    -0.180000       12.0110           0   0.00000     -0.301140E-02
     23742 MEMB     192      PYPG     H4R      HAL2     0.900000E-01   1.00800           0   0.00000     -0.301140E-02
     23743 MEMB     192      PYPG     H4S      HAL2     0.900000E-01   1.00800           0   0.00000     -0.301140E-02
     23744 MEMB     192      PYPG     C25      CTL2    -0.180000       12.0110           0   0.00000     -0.301140E-02
     23745 MEMB     192      PYPG     H5R      HAL2     0.900000E-01   1.00800           0   0.00000     -0.301140E-02
     23746 MEMB     192      PYPG     H5S      HAL2     0.900000E-01   1.00800           0   0.00000     -0.301140E-02
     23747 MEMB     192      PYPG     C26      CTL2    -0.180000       12.0110           0   0.00000     -0.301140E-02
     23748 MEMB     192      PYPG     H6R      HAL2     0.900000E-01   1.00800           0   0.00000     -0.301140E-02
     23749 MEMB     192      PYPG     H6S      HAL2     0.900000E-01   1.00800           0   0.00000     -0.301140E-02
     23750 MEMB     192      PYPG     C27      CTL2    -0.180000       12.0110           0   0.00000     -0.301140E-02
     23751 MEMB     192      PYPG     H7R      HAL2     0.900000E-01   1.00800           0   0.00000     -0.301140E-02
     23752 MEMB     192      PYPG     H7S      HAL2     0.900000E-01   1.00800           0   0.00000     -0.301140E-02
     23753 MEMB     192      PYPG     C28      CTL2    -0.180000       12.0110           0   0.00000     -0.301140E-02
     23754 MEMB     192      PYPG     H8R      HAL2     0.900000E-01   1.00800           0   0.00000     -0.301140E-02
     23755 MEMB     192      PYPG     H8S      HAL2     0.900000E-01   1.00800           0   0.00000     -0.301140E-02
     23756 MEMB     192      PYPG     C29      CEL1    -0.150000       12.0110           0   0.00000     -0.301140E-02
     23757 MEMB     192      PYPG     H9R      HEL1     0.150000       1.00800           0   0.00000     -0.301140E-02
     23758 MEMB     192      PYPG     C210     CEL1    -0.150000       12.0110           0   0.00000     -0.301140E-02
     23759 MEMB     192      PYPG     H10R     HEL1     0.150000       1.00800           0   0.00000     -0.301140E-02
     23760 MEMB     192      PYPG     C211     CTL2    -0.180000       12.0110           0   0.00000     -0.301140E-02
     23761 MEMB     192      PYPG     H11R     HAL2     0.900000E-01   1.00800           0   0.00000     -0.301140E-02
     23762 MEMB     192      PYPG     H11S     HAL2     0.900000E-01   1.00800           0   0.00000     -0.301140E-02
     23763 MEMB     192      PYPG     C212     CTL2    -0.180000       12.0110           0   0.00000     -0.301140E-02
     23764 MEMB     192      PYPG     H12R     HAL2     0.900000E-01   1.00800           0   0.00000     -0.301140E-02
     23765 MEMB     192      PYPG     H12S     HAL2     0.900000E-01   1.00800           0   0.00000     -0.301140E-02
     23766 MEMB     192      PYPG     C213     CTL2    -0.180000       12.0110           0   0.00000     -0.301140E-02
     23767 MEMB     192      PYPG     H13R     HAL2     0.900000E-01   1.00800           0   0.00000     -0.301140E-02
     23768 MEMB     192      PYPG     H13S     HAL2     0.900000E-01   1.00800           0   0.00000     -0.301140E-02
     23769 MEMB     192      PYPG     C214     CTL2    -0.180000       12.0110           0   0.00000     -0.301140E-02
     23770 MEMB     192      PYPG     H14R     HAL2     0.900000E-01   1.00800           0   0.00000     -0.301140E-02
     23771 MEMB     192      PYPG     H14S     HAL2     0.900000E-01   1.00800           0   0.00000     -0.301140E-02
     23772 MEMB     192      PYPG     C215     CTL2    -0.180000       12.0110           0   0.00000     -0.301140E-02
     23773 MEMB     192      PYPG     H15R     HAL2     0.900000E-01   1.00800           0   0.00000     -0.301140E-02
     23774 MEMB     192      PYPG     H15S     HAL2     0.900000E-01   1.00800           0   0.00000     -0.301140E-02
     23775 MEMB     192      PYPG     C216     CTL3    -0.270000       12.0110           0   0.00000     -0.301140E-02
     23776 MEMB     192      PYPG     H16R     HAL3     0.900000E-01   1.00800           0   0.00000     -0.301140E-02
     23777 MEMB     192      PYPG     H16S     HAL3     0.900000E-01   1.00800           0   0.00000     -0.301140E-02
     23778 MEMB     192      PYPG     H16T     HAL3     0.900000E-01   1.00800           0   0.00000     -0.301140E-02
     23779 MEMB     192      PYPG     C33      CTL2    -0.180000       12.0110           0   0.00000     -0.301140E-02
     23780 MEMB     192      PYPG     H3X      HAL2     0.900000E-01   1.00800           0   0.00000     -0.301140E-02
     23781 MEMB     192      PYPG     H3Y      HAL2     0.900000E-01   1.00800           0   0.00000     -0.301140E-02
     23782 MEMB     192      PYPG     C34      CTL2    -0.180000       12.0110           0   0.00000     -0.301140E-02
     23783 MEMB     192      PYPG     H4X      HAL2     0.900000E-01   1.00800           0   0.00000     -0.301140E-02
     23784 MEMB     192      PYPG     H4Y      HAL2     0.900000E-01   1.00800           0   0.00000     -0.301140E-02
     23785 MEMB     192      PYPG     C35      CTL2    -0.180000       12.0110           0   0.00000     -0.301140E-02
     23786 MEMB     192      PYPG     H5X      HAL2     0.900000E-01   1.00800           0   0.00000     -0.301140E-02
     23787 MEMB     192      PYPG     H5Y      HAL2     0.900000E-01   1.00800           0   0.00000     -0.301140E-02
     23788 MEMB     192      PYPG     C36      CTL2    -0.180000       12.0110           0   0.00000     -0.301140E-02
     23789 MEMB     192      PYPG     H6X      HAL2     0.900000E-01   1.00800           0   0.00000     -0.301140E-02
     23790 MEMB     192      PYPG     H6Y      HAL2     0.900000E-01   1.00800           0   0.00000     -0.301140E-02
     23791 MEMB     192      PYPG     C37      CTL2    -0.180000       12.0110           0   0.00000     -0.301140E-02
     23792 MEMB     192      PYPG     H7X      HAL2     0.900000E-01   1.00800           0   0.00000     -0.301140E-02
     23793 MEMB     192      PYPG     H7Y      HAL2     0.900000E-01   1.00800           0   0.00000     -0.301140E-02
     23794 MEMB     192      PYPG     C38      CTL2    -0.180000       12.0110           0   0.00000     -0.301140E-02
     23795 MEMB     192      PYPG     H8X      HAL2     0.900000E-01   1.00800           0   0.00000     -0.301140E-02
     23796 MEMB     192      PYPG     H8Y      HAL2     0.900000E-01   1.00800           0   0.00000     -0.301140E-02
     23797 MEMB     192      PYPG     C39      CTL2    -0.180000       12.0110           0   0.00000     -0.301140E-02
     23798 MEMB     192      PYPG     H9X      HAL2     0.900000E-01   1.00800           0   0.00000     -0.301140E-02
     23799 MEMB     192      PYPG     H9Y      HAL2     0.900000E-01   1.00800           0   0.00000     -0.301140E-02
     23800 MEMB     192      PYPG     C310     CTL2    -0.180000       12.0110           0   0.00000     -0.301140E-02
     23801 MEMB     192      PYPG     H10X     HAL2     0.900000E-01   1.00800           0   0.00000     -0.301140E-02
     23802 MEMB     192      PYPG     H10Y     HAL2     0.900000E-01   1.00800           0   0.00000     -0.301140E-02
     23803 MEMB     192      PYPG     C311     CTL2    -0.180000       12.0110           0   0.00000     -0.301140E-02
     23804 MEMB     192      PYPG     H11X     HAL2     0.900000E-01   1.00800           0   0.00000     -0.301140E-02
     23805 MEMB     192      PYPG     H11Y     HAL2     0.900000E-01   1.00800           0   0.00000     -0.301140E-02
     23806 MEMB     192      PYPG     C312     CTL2    -0.180000       12.0110           0   0.00000     -0.301140E-02
     23807 MEMB     192      PYPG     H12X     HAL2     0.900000E-01   1.00800           0   0.00000     -0.301140E-02
     23808 MEMB     192      PYPG     H12Y     HAL2     0.900000E-01   1.00800           0   0.00000     -0.301140E-02
     23809 MEMB     192      PYPG     C313     CTL2    -0.180000       12.0110           0   0.00000     -0.301140E-02
     23810 MEMB     192      PYPG     H13X     HAL2     0.900000E-01   1.00800           0   0.00000     -0.301140E-02
     23811 MEMB     192      PYPG     H13Y     HAL2     0.900000E-01   1.00800           0   0.00000     -0.301140E-02
     23812 MEMB     192      PYPG     C314     CTL2    -0.180000       12.0110           0   0.00000     -0.301140E-02
     23813 MEMB     192      PYPG     H14X     HAL2     0.900000E-01   1.00800           0   0.00000     -0.301140E-02
     23814 MEMB     192      PYPG     H14Y     HAL2     0.900000E-01   1.00800           0   0.00000     -0.301140E-02
     23815 MEMB     192      PYPG     C315     CTL2    -0.180000       12.0110           0   0.00000     -0.301140E-02
     23816 MEMB     192      PYPG     H15X     HAL2     0.900000E-01   1.00800           0   0.00000     -0.301140E-02
     23817 MEMB     192      PYPG     H15Y     HAL2     0.900000E-01   1.00800           0   0.00000     -0.301140E-02
     23818 MEMB     192      PYPG     C316     CTL3    -0.270000       12.0110           0   0.00000     -0.301140E-02
     23819 MEMB     192      PYPG     H16X     HAL3     0.900000E-01   1.00800           0   0.00000     -0.301140E-02
     23820 MEMB     192      PYPG     H16Y     HAL3     0.900000E-01   1.00800           0   0.00000     -0.301140E-02
     23821 MEMB     192      PYPG     H16Z     HAL3     0.900000E-01   1.00800           0   0.00000     -0.301140E-02
     23822 MEMB     193      QMPE     N        NH3L    -0.300000       14.0070           0   0.00000     -0.301140E-02
     23823 MEMB     193      QMPE     HN1      HCL      0.330000       1.00800           0   0.00000     -0.301140E-02
     23824 MEMB     193      QMPE     HN2      HCL      0.330000       1.00800           0   0.00000     -0.301140E-02
     23825 MEMB     193      QMPE     HN3      HCL      0.330000       1.00800           0   0.00000     -0.301140E-02
     23826 MEMB     193      QMPE     C12      CTL2     0.130000       12.0110           0   0.00000     -0.301140E-02
     23827 MEMB     193      QMPE     H12A     HAL2     0.900000E-01   1.00800           0   0.00000     -0.301140E-02
     23828 MEMB     193      QMPE     H12B     HAL2     0.900000E-01   1.00800           0   0.00000     -0.301140E-02
     23829 MEMB     193      QMPE     C11      CTL2    -0.800000E-01   12.0110           0   0.00000     -0.301140E-02
     23830 MEMB     193      QMPE     H11A     HAL2     0.900000E-01   1.00800           0   0.00000     -0.301140E-02
     23831 MEMB     193      QMPE     H11B     HAL2     0.900000E-01   1.00800           0   0.00000     -0.301140E-02
     23832 MEMB     193      QMPE     P        PL        1.50000       30.9740           0   0.00000     -0.301140E-02
     23833 MEMB     193      QMPE     O13      O2L     -0.780000       15.9994           0   0.00000     -0.301140E-02
     23834 MEMB     193      QMPE     O14      O2L     -0.780000       15.9994           0   0.00000     -0.301140E-02
     23835 MEMB     193      QMPE     O11      OSLP    -0.570000       15.9994           0   0.00000     -0.301140E-02
     23836 MEMB     193      QMPE     O12      OSLP    -0.570000       15.9994           0   0.00000     -0.301140E-02
     23837 MEMB     193      QMPE     C1       CTL2    -0.800000E-01   12.0110           0   0.00000     -0.301140E-02
     23838 MEMB     193      QMPE     HA       HAL2     0.900000E-01   1.00800           0   0.00000     -0.301140E-02
     23839 MEMB     193      QMPE     HB       HAL2     0.900000E-01   1.00800           0   0.00000     -0.301140E-02
     23840 MEMB     193      QMPE     C2       CTL1     0.170000       12.0110           0   0.00000     -0.301140E-02
     23841 MEMB     193      QMPE     HS       HAL1     0.900000E-01   1.00800           0   0.00000     -0.301140E-02
     23842 MEMB     193      QMPE     O21      OSL     -0.490000       15.9994           0   0.00000     -0.301140E-02
     23843 MEMB     193      QMPE     C21      CL       0.900000       12.0110           0   0.00000     -0.301140E-02
     23844 MEMB     193      QMPE     O22      OBL     -0.630000       15.9994           0   0.00000     -0.301140E-02
     23845 MEMB     193      QMPE     C22      CTL2    -0.220000       12.0110           0   0.00000     -0.301140E-02
     23846 MEMB     193      QMPE     H2R      HAL2     0.900000E-01   1.00800           0   0.00000     -0.301140E-02
     23847 MEMB     193      QMPE     H2S      HAL2     0.900000E-01   1.00800           0   0.00000     -0.301140E-02
     23848 MEMB     193      QMPE     C3       CTL2     0.800000E-01   12.0110           0   0.00000     -0.301140E-02
     23849 MEMB     193      QMPE     HX       HAL2     0.900000E-01   1.00800           0   0.00000     -0.301140E-02
     23850 MEMB     193      QMPE     HY       HAL2     0.900000E-01   1.00800           0   0.00000     -0.301140E-02
     23851 MEMB     193      QMPE     O31      OSL     -0.490000       15.9994           0   0.00000     -0.301140E-02
     23852 MEMB     193      QMPE     C31      CL       0.900000       12.0110           0   0.00000     -0.301140E-02
     23853 MEMB     193      QMPE     O32      OBL     -0.630000       15.9994           0   0.00000     -0.301140E-02
     23854 MEMB     193      QMPE     C32      CTL2    -0.220000       12.0110           0   0.00000     -0.301140E-02
     23855 MEMB     193      QMPE     H2X      HAL2     0.900000E-01   1.00800           0   0.00000     -0.301140E-02
     23856 MEMB     193      QMPE     H2Y      HAL2     0.900000E-01   1.00800           0   0.00000     -0.301140E-02
     23857 MEMB     193      QMPE     C23      CTL2    -0.180000       12.0110           0   0.00000     -0.301140E-02
     23858 MEMB     193      QMPE     H3R      HAL2     0.900000E-01   1.00800           0   0.00000     -0.301140E-02
     23859 MEMB     193      QMPE     H3S      HAL2     0.900000E-01   1.00800           0   0.00000     -0.301140E-02
     23860 MEMB     193      QMPE     C24      CTL2    -0.180000       12.0110           0   0.00000     -0.301140E-02
     23861 MEMB     193      QMPE     H4R      HAL2     0.900000E-01   1.00800           0   0.00000     -0.301140E-02
     23862 MEMB     193      QMPE     H4S      HAL2     0.900000E-01   1.00800           0   0.00000     -0.301140E-02
     23863 MEMB     193      QMPE     C25      CTL2    -0.180000       12.0110           0   0.00000     -0.301140E-02
     23864 MEMB     193      QMPE     H5R      HAL2     0.900000E-01   1.00800           0   0.00000     -0.301140E-02
     23865 MEMB     193      QMPE     H5S      HAL2     0.900000E-01   1.00800           0   0.00000     -0.301140E-02
     23866 MEMB     193      QMPE     C26      CTL2    -0.180000       12.0110           0   0.00000     -0.301140E-02
     23867 MEMB     193      QMPE     H6R      HAL2     0.900000E-01   1.00800           0   0.00000     -0.301140E-02
     23868 MEMB     193      QMPE     H6S      HAL2     0.900000E-01   1.00800           0   0.00000     -0.301140E-02
     23869 MEMB     193      QMPE     C27      CTL2    -0.180000       12.0110           0   0.00000     -0.301140E-02
     23870 MEMB     193      QMPE     H7R      HAL2     0.900000E-01   1.00800           0   0.00000     -0.301140E-02
     23871 MEMB     193      QMPE     H7S      HAL2     0.900000E-01   1.00800           0   0.00000     -0.301140E-02
     23872 MEMB     193      QMPE     C28      CTL2    -0.180000       12.0110           0   0.00000     -0.301140E-02
     23873 MEMB     193      QMPE     H8R      HAL2     0.900000E-01   1.00800           0   0.00000     -0.301140E-02
     23874 MEMB     193      QMPE     H8S      HAL2     0.900000E-01   1.00800           0   0.00000     -0.301140E-02
     23875 MEMB     193      QMPE     C29      CG3RC1  -0.900000E-01   12.0110           0   0.00000     -0.301140E-02
     23876 MEMB     193      QMPE     H9R      HGA1     0.900000E-01   1.00800           0   0.00000     -0.301140E-02
     23877 MEMB     193      QMPE     C217     CG3C31  -0.180000       12.0110           0   0.00000     -0.301140E-02
     23878 MEMB     193      QMPE     H17R     HGA2     0.900000E-01   1.00800           0   0.00000     -0.301140E-02
     23879 MEMB     193      QMPE     H17S     HGA2     0.900000E-01   1.00800           0   0.00000     -0.301140E-02
     23880 MEMB     193      QMPE     C210     CG3RC1  -0.900000E-01   12.0110           0   0.00000     -0.301140E-02
     23881 MEMB     193      QMPE     H10R     HGA1     0.900000E-01   1.00800           0   0.00000     -0.301140E-02
     23882 MEMB     193      QMPE     C211     CTL2    -0.180000       12.0110           0   0.00000     -0.301140E-02
     23883 MEMB     193      QMPE     H11R     HAL2     0.900000E-01   1.00800           0   0.00000     -0.301140E-02
     23884 MEMB     193      QMPE     H11S     HAL2     0.900000E-01   1.00800           0   0.00000     -0.301140E-02
     23885 MEMB     193      QMPE     C212     CTL2    -0.180000       12.0110           0   0.00000     -0.301140E-02
     23886 MEMB     193      QMPE     H12R     HAL2     0.900000E-01   1.00800           0   0.00000     -0.301140E-02
     23887 MEMB     193      QMPE     H12S     HAL2     0.900000E-01   1.00800           0   0.00000     -0.301140E-02
     23888 MEMB     193      QMPE     C213     CTL2    -0.180000       12.0110           0   0.00000     -0.301140E-02
     23889 MEMB     193      QMPE     H13R     HAL2     0.900000E-01   1.00800           0   0.00000     -0.301140E-02
     23890 MEMB     193      QMPE     H13S     HAL2     0.900000E-01   1.00800           0   0.00000     -0.301140E-02
     23891 MEMB     193      QMPE     C214     CTL2    -0.180000       12.0110           0   0.00000     -0.301140E-02
     23892 MEMB     193      QMPE     H14R     HAL2     0.900000E-01   1.00800           0   0.00000     -0.301140E-02
     23893 MEMB     193      QMPE     H14S     HAL2     0.900000E-01   1.00800           0   0.00000     -0.301140E-02
     23894 MEMB     193      QMPE     C215     CTL2    -0.180000       12.0110           0   0.00000     -0.301140E-02
     23895 MEMB     193      QMPE     H15R     HAL2     0.900000E-01   1.00800           0   0.00000     -0.301140E-02
     23896 MEMB     193      QMPE     H15S     HAL2     0.900000E-01   1.00800           0   0.00000     -0.301140E-02
     23897 MEMB     193      QMPE     C216     CTL3    -0.270000       12.0110           0   0.00000     -0.301140E-02
     23898 MEMB     193      QMPE     H16R     HAL3     0.900000E-01   1.00800           0   0.00000     -0.301140E-02
     23899 MEMB     193      QMPE     H16S     HAL3     0.900000E-01   1.00800           0   0.00000     -0.301140E-02
     23900 MEMB     193      QMPE     H16T     HAL3     0.900000E-01   1.00800           0   0.00000     -0.301140E-02
     23901 MEMB     193      QMPE     C33      CTL2    -0.180000       12.0110           0   0.00000     -0.301140E-02
     23902 MEMB     193      QMPE     H3X      HAL2     0.900000E-01   1.00800           0   0.00000     -0.301140E-02
     23903 MEMB     193      QMPE     H3Y      HAL2     0.900000E-01   1.00800           0   0.00000     -0.301140E-02
     23904 MEMB     193      QMPE     C34      CTL2    -0.180000       12.0110           0   0.00000     -0.301140E-02
     23905 MEMB     193      QMPE     H4X      HAL2     0.900000E-01   1.00800           0   0.00000     -0.301140E-02
     23906 MEMB     193      QMPE     H4Y      HAL2     0.900000E-01   1.00800           0   0.00000     -0.301140E-02
     23907 MEMB     193      QMPE     C35      CTL2    -0.180000       12.0110           0   0.00000     -0.301140E-02
     23908 MEMB     193      QMPE     H5X      HAL2     0.900000E-01   1.00800           0   0.00000     -0.301140E-02
     23909 MEMB     193      QMPE     H5Y      HAL2     0.900000E-01   1.00800           0   0.00000     -0.301140E-02
     23910 MEMB     193      QMPE     C36      CTL2    -0.180000       12.0110           0   0.00000     -0.301140E-02
     23911 MEMB     193      QMPE     H6X      HAL2     0.900000E-01   1.00800           0   0.00000     -0.301140E-02
     23912 MEMB     193      QMPE     H6Y      HAL2     0.900000E-01   1.00800           0   0.00000     -0.301140E-02
     23913 MEMB     193      QMPE     C37      CTL2    -0.180000       12.0110           0   0.00000     -0.301140E-02
     23914 MEMB     193      QMPE     H7X      HAL2     0.900000E-01   1.00800           0   0.00000     -0.301140E-02
     23915 MEMB     193      QMPE     H7Y      HAL2     0.900000E-01   1.00800           0   0.00000     -0.301140E-02
     23916 MEMB     193      QMPE     C38      CTL2    -0.180000       12.0110           0   0.00000     -0.301140E-02
     23917 MEMB     193      QMPE     H8X      HAL2     0.900000E-01   1.00800           0   0.00000     -0.301140E-02
     23918 MEMB     193      QMPE     H8Y      HAL2     0.900000E-01   1.00800           0   0.00000     -0.301140E-02
     23919 MEMB     193      QMPE     C39      CTL2    -0.180000       12.0110           0   0.00000     -0.301140E-02
     23920 MEMB     193      QMPE     H9X      HAL2     0.900000E-01   1.00800           0   0.00000     -0.301140E-02
     23921 MEMB     193      QMPE     H9Y      HAL2     0.900000E-01   1.00800           0   0.00000     -0.301140E-02
     23922 MEMB     193      QMPE     C310     CTL2    -0.180000       12.0110           0   0.00000     -0.301140E-02
     23923 MEMB     193      QMPE     H10X     HAL2     0.900000E-01   1.00800           0   0.00000     -0.301140E-02
     23924 MEMB     193      QMPE     H10Y     HAL2     0.900000E-01   1.00800           0   0.00000     -0.301140E-02
     23925 MEMB     193      QMPE     C311     CTL2    -0.180000       12.0110           0   0.00000     -0.301140E-02
     23926 MEMB     193      QMPE     H11X     HAL2     0.900000E-01   1.00800           0   0.00000     -0.301140E-02
     23927 MEMB     193      QMPE     H11Y     HAL2     0.900000E-01   1.00800           0   0.00000     -0.301140E-02
     23928 MEMB     193      QMPE     C312     CTL2    -0.180000       12.0110           0   0.00000     -0.301140E-02
     23929 MEMB     193      QMPE     H12X     HAL2     0.900000E-01   1.00800           0   0.00000     -0.301140E-02
     23930 MEMB     193      QMPE     H12Y     HAL2     0.900000E-01   1.00800           0   0.00000     -0.301140E-02
     23931 MEMB     193      QMPE     C313     CTL2    -0.180000       12.0110           0   0.00000     -0.301140E-02
     23932 MEMB     193      QMPE     H13X     HAL2     0.900000E-01   1.00800           0   0.00000     -0.301140E-02
     23933 MEMB     193      QMPE     H13Y     HAL2     0.900000E-01   1.00800           0   0.00000     -0.301140E-02
     23934 MEMB     193      QMPE     C314     CTL2    -0.180000       12.0110           0   0.00000     -0.301140E-02
     23935 MEMB     193      QMPE     H14X     HAL2     0.900000E-01   1.00800           0   0.00000     -0.301140E-02
     23936 MEMB     193      QMPE     H14Y     HAL2     0.900000E-01   1.00800           0   0.00000     -0.301140E-02
     23937 MEMB     193      QMPE     C315     CTL3    -0.270000       12.0110           0   0.00000     -0.301140E-02
     23938 MEMB     193      QMPE     H15X     HAL3     0.900000E-01   1.00800           0   0.00000     -0.301140E-02
     23939 MEMB     193      QMPE     H15Y     HAL3     0.900000E-01   1.00800           0   0.00000     -0.301140E-02
     23940 MEMB     193      QMPE     H15Z     HAL3     0.900000E-01   1.00800           0   0.00000     -0.301140E-02
     23941 MEMB     194      PMPE     N        NH3L    -0.300000       14.0070           0   0.00000     -0.301140E-02
     23942 MEMB     194      PMPE     HN1      HCL      0.330000       1.00800           0   0.00000     -0.301140E-02
     23943 MEMB     194      PMPE     HN2      HCL      0.330000       1.00800           0   0.00000     -0.301140E-02
     23944 MEMB     194      PMPE     HN3      HCL      0.330000       1.00800           0   0.00000     -0.301140E-02
     23945 MEMB     194      PMPE     C12      CTL2     0.130000       12.0110           0   0.00000     -0.301140E-02
     23946 MEMB     194      PMPE     H12A     HAL2     0.900000E-01   1.00800           0   0.00000     -0.301140E-02
     23947 MEMB     194      PMPE     H12B     HAL2     0.900000E-01   1.00800           0   0.00000     -0.301140E-02
     23948 MEMB     194      PMPE     C11      CTL2    -0.800000E-01   12.0110           0   0.00000     -0.301140E-02
     23949 MEMB     194      PMPE     H11A     HAL2     0.900000E-01   1.00800           0   0.00000     -0.301140E-02
     23950 MEMB     194      PMPE     H11B     HAL2     0.900000E-01   1.00800           0   0.00000     -0.301140E-02
     23951 MEMB     194      PMPE     P        PL        1.50000       30.9740           0   0.00000     -0.301140E-02
     23952 MEMB     194      PMPE     O13      O2L     -0.780000       15.9994           0   0.00000     -0.301140E-02
     23953 MEMB     194      PMPE     O14      O2L     -0.780000       15.9994           0   0.00000     -0.301140E-02
     23954 MEMB     194      PMPE     O11      OSLP    -0.570000       15.9994           0   0.00000     -0.301140E-02
     23955 MEMB     194      PMPE     O12      OSLP    -0.570000       15.9994           0   0.00000     -0.301140E-02
     23956 MEMB     194      PMPE     C1       CTL2    -0.800000E-01   12.0110           0   0.00000     -0.301140E-02
     23957 MEMB     194      PMPE     HA       HAL2     0.900000E-01   1.00800           0   0.00000     -0.301140E-02
     23958 MEMB     194      PMPE     HB       HAL2     0.900000E-01   1.00800           0   0.00000     -0.301140E-02
     23959 MEMB     194      PMPE     C2       CTL1     0.170000       12.0110           0   0.00000     -0.301140E-02
     23960 MEMB     194      PMPE     HS       HAL1     0.900000E-01   1.00800           0   0.00000     -0.301140E-02
     23961 MEMB     194      PMPE     O21      OSL     -0.490000       15.9994           0   0.00000     -0.301140E-02
     23962 MEMB     194      PMPE     C21      CL       0.900000       12.0110           0   0.00000     -0.301140E-02
     23963 MEMB     194      PMPE     O22      OBL     -0.630000       15.9994           0   0.00000     -0.301140E-02
     23964 MEMB     194      PMPE     C22      CTL2    -0.220000       12.0110           0   0.00000     -0.301140E-02
     23965 MEMB     194      PMPE     H2R      HAL2     0.900000E-01   1.00800           0   0.00000     -0.301140E-02
     23966 MEMB     194      PMPE     H2S      HAL2     0.900000E-01   1.00800           0   0.00000     -0.301140E-02
     23967 MEMB     194      PMPE     C3       CTL2     0.800000E-01   12.0110           0   0.00000     -0.301140E-02
     23968 MEMB     194      PMPE     HX       HAL2     0.900000E-01   1.00800           0   0.00000     -0.301140E-02
     23969 MEMB     194      PMPE     HY       HAL2     0.900000E-01   1.00800           0   0.00000     -0.301140E-02
     23970 MEMB     194      PMPE     O31      OSL     -0.490000       15.9994           0   0.00000     -0.301140E-02
     23971 MEMB     194      PMPE     C31      CL       0.900000       12.0110           0   0.00000     -0.301140E-02
     23972 MEMB     194      PMPE     O32      OBL     -0.630000       15.9994           0   0.00000     -0.301140E-02
     23973 MEMB     194      PMPE     C32      CTL2    -0.220000       12.0110           0   0.00000     -0.301140E-02
     23974 MEMB     194      PMPE     H2X      HAL2     0.900000E-01   1.00800           0   0.00000     -0.301140E-02
     23975 MEMB     194      PMPE     H2Y      HAL2     0.900000E-01   1.00800           0   0.00000     -0.301140E-02
     23976 MEMB     194      PMPE     C23      CTL2    -0.180000       12.0110           0   0.00000     -0.301140E-02
     23977 MEMB     194      PMPE     H3R      HAL2     0.900000E-01   1.00800           0   0.00000     -0.301140E-02
     23978 MEMB     194      PMPE     H3S      HAL2     0.900000E-01   1.00800           0   0.00000     -0.301140E-02
     23979 MEMB     194      PMPE     C24      CTL2    -0.180000       12.0110           0   0.00000     -0.301140E-02
     23980 MEMB     194      PMPE     H4R      HAL2     0.900000E-01   1.00800           0   0.00000     -0.301140E-02
     23981 MEMB     194      PMPE     H4S      HAL2     0.900000E-01   1.00800           0   0.00000     -0.301140E-02
     23982 MEMB     194      PMPE     C25      CTL2    -0.180000       12.0110           0   0.00000     -0.301140E-02
     23983 MEMB     194      PMPE     H5R      HAL2     0.900000E-01   1.00800           0   0.00000     -0.301140E-02
     23984 MEMB     194      PMPE     H5S      HAL2     0.900000E-01   1.00800           0   0.00000     -0.301140E-02
     23985 MEMB     194      PMPE     C26      CTL2    -0.180000       12.0110           0   0.00000     -0.301140E-02
     23986 MEMB     194      PMPE     H6R      HAL2     0.900000E-01   1.00800           0   0.00000     -0.301140E-02
     23987 MEMB     194      PMPE     H6S      HAL2     0.900000E-01   1.00800           0   0.00000     -0.301140E-02
     23988 MEMB     194      PMPE     C27      CTL2    -0.180000       12.0110           0   0.00000     -0.301140E-02
     23989 MEMB     194      PMPE     H7R      HAL2     0.900000E-01   1.00800           0   0.00000     -0.301140E-02
     23990 MEMB     194      PMPE     H7S      HAL2     0.900000E-01   1.00800           0   0.00000     -0.301140E-02
     23991 MEMB     194      PMPE     C28      CTL2    -0.180000       12.0110           0   0.00000     -0.301140E-02
     23992 MEMB     194      PMPE     H8R      HAL2     0.900000E-01   1.00800           0   0.00000     -0.301140E-02
     23993 MEMB     194      PMPE     H8S      HAL2     0.900000E-01   1.00800           0   0.00000     -0.301140E-02
     23994 MEMB     194      PMPE     C29      CG3RC1  -0.900000E-01   12.0110           0   0.00000     -0.301140E-02
     23995 MEMB     194      PMPE     H9R      HGA1     0.900000E-01   1.00800           0   0.00000     -0.301140E-02
     23996 MEMB     194      PMPE     C217     CG3C31  -0.180000       12.0110           0   0.00000     -0.301140E-02
     23997 MEMB     194      PMPE     H17R     HGA2     0.900000E-01   1.00800           0   0.00000     -0.301140E-02
     23998 MEMB     194      PMPE     H17S     HGA2     0.900000E-01   1.00800           0   0.00000     -0.301140E-02
     23999 MEMB     194      PMPE     C210     CG3RC1  -0.900000E-01   12.0110           0   0.00000     -0.301140E-02
     24000 MEMB     194      PMPE     H10R     HGA1     0.900000E-01   1.00800           0   0.00000     -0.301140E-02
     24001 MEMB     194      PMPE     C211     CTL2    -0.180000       12.0110           0   0.00000     -0.301140E-02
     24002 MEMB     194      PMPE     H11R     HAL2     0.900000E-01   1.00800           0   0.00000     -0.301140E-02
     24003 MEMB     194      PMPE     H11S     HAL2     0.900000E-01   1.00800           0   0.00000     -0.301140E-02
     24004 MEMB     194      PMPE     C212     CTL2    -0.180000       12.0110           0   0.00000     -0.301140E-02
     24005 MEMB     194      PMPE     H12R     HAL2     0.900000E-01   1.00800           0   0.00000     -0.301140E-02
     24006 MEMB     194      PMPE     H12S     HAL2     0.900000E-01   1.00800           0   0.00000     -0.301140E-02
     24007 MEMB     194      PMPE     C213     CTL2    -0.180000       12.0110           0   0.00000     -0.301140E-02
     24008 MEMB     194      PMPE     H13R     HAL2     0.900000E-01   1.00800           0   0.00000     -0.301140E-02
     24009 MEMB     194      PMPE     H13S     HAL2     0.900000E-01   1.00800           0   0.00000     -0.301140E-02
     24010 MEMB     194      PMPE     C214     CTL2    -0.180000       12.0110           0   0.00000     -0.301140E-02
     24011 MEMB     194      PMPE     H14R     HAL2     0.900000E-01   1.00800           0   0.00000     -0.301140E-02
     24012 MEMB     194      PMPE     H14S     HAL2     0.900000E-01   1.00800           0   0.00000     -0.301140E-02
     24013 MEMB     194      PMPE     C215     CTL2    -0.180000       12.0110           0   0.00000     -0.301140E-02
     24014 MEMB     194      PMPE     H15R     HAL2     0.900000E-01   1.00800           0   0.00000     -0.301140E-02
     24015 MEMB     194      PMPE     H15S     HAL2     0.900000E-01   1.00800           0   0.00000     -0.301140E-02
     24016 MEMB     194      PMPE     C216     CTL3    -0.270000       12.0110           0   0.00000     -0.301140E-02
     24017 MEMB     194      PMPE     H16R     HAL3     0.900000E-01   1.00800           0   0.00000     -0.301140E-02
     24018 MEMB     194      PMPE     H16S     HAL3     0.900000E-01   1.00800           0   0.00000     -0.301140E-02
     24019 MEMB     194      PMPE     H16T     HAL3     0.900000E-01   1.00800           0   0.00000     -0.301140E-02
     24020 MEMB     194      PMPE     C33      CTL2    -0.180000       12.0110           0   0.00000     -0.301140E-02
     24021 MEMB     194      PMPE     H3X      HAL2     0.900000E-01   1.00800           0   0.00000     -0.301140E-02
     24022 MEMB     194      PMPE     H3Y      HAL2     0.900000E-01   1.00800           0   0.00000     -0.301140E-02
     24023 MEMB     194      PMPE     C34      CTL2    -0.180000       12.0110           0   0.00000     -0.301140E-02
     24024 MEMB     194      PMPE     H4X      HAL2     0.900000E-01   1.00800           0   0.00000     -0.301140E-02
     24025 MEMB     194      PMPE     H4Y      HAL2     0.900000E-01   1.00800           0   0.00000     -0.301140E-02
     24026 MEMB     194      PMPE     C35      CTL2    -0.180000       12.0110           0   0.00000     -0.301140E-02
     24027 MEMB     194      PMPE     H5X      HAL2     0.900000E-01   1.00800           0   0.00000     -0.301140E-02
     24028 MEMB     194      PMPE     H5Y      HAL2     0.900000E-01   1.00800           0   0.00000     -0.301140E-02
     24029 MEMB     194      PMPE     C36      CTL2    -0.180000       12.0110           0   0.00000     -0.301140E-02
     24030 MEMB     194      PMPE     H6X      HAL2     0.900000E-01   1.00800           0   0.00000     -0.301140E-02
     24031 MEMB     194      PMPE     H6Y      HAL2     0.900000E-01   1.00800           0   0.00000     -0.301140E-02
     24032 MEMB     194      PMPE     C37      CTL2    -0.180000       12.0110           0   0.00000     -0.301140E-02
     24033 MEMB     194      PMPE     H7X      HAL2     0.900000E-01   1.00800           0   0.00000     -0.301140E-02
     24034 MEMB     194      PMPE     H7Y      HAL2     0.900000E-01   1.00800           0   0.00000     -0.301140E-02
     24035 MEMB     194      PMPE     C38      CTL2    -0.180000       12.0110           0   0.00000     -0.301140E-02
     24036 MEMB     194      PMPE     H8X      HAL2     0.900000E-01   1.00800           0   0.00000     -0.301140E-02
     24037 MEMB     194      PMPE     H8Y      HAL2     0.900000E-01   1.00800           0   0.00000     -0.301140E-02
     24038 MEMB     194      PMPE     C39      CTL2    -0.180000       12.0110           0   0.00000     -0.301140E-02
     24039 MEMB     194      PMPE     H9X      HAL2     0.900000E-01   1.00800           0   0.00000     -0.301140E-02
     24040 MEMB     194      PMPE     H9Y      HAL2     0.900000E-01   1.00800           0   0.00000     -0.301140E-02
     24041 MEMB     194      PMPE     C310     CTL2    -0.180000       12.0110           0   0.00000     -0.301140E-02
     24042 MEMB     194      PMPE     H10X     HAL2     0.900000E-01   1.00800           0   0.00000     -0.301140E-02
     24043 MEMB     194      PMPE     H10Y     HAL2     0.900000E-01   1.00800           0   0.00000     -0.301140E-02
     24044 MEMB     194      PMPE     C311     CTL2    -0.180000       12.0110           0   0.00000     -0.301140E-02
     24045 MEMB     194      PMPE     H11X     HAL2     0.900000E-01   1.00800           0   0.00000     -0.301140E-02
     24046 MEMB     194      PMPE     H11Y     HAL2     0.900000E-01   1.00800           0   0.00000     -0.301140E-02
     24047 MEMB     194      PMPE     C312     CTL2    -0.180000       12.0110           0   0.00000     -0.301140E-02
     24048 MEMB     194      PMPE     H12X     HAL2     0.900000E-01   1.00800           0   0.00000     -0.301140E-02
     24049 MEMB     194      PMPE     H12Y     HAL2     0.900000E-01   1.00800           0   0.00000     -0.301140E-02
     24050 MEMB     194      PMPE     C313     CTL2    -0.180000       12.0110           0   0.00000     -0.301140E-02
     24051 MEMB     194      PMPE     H13X     HAL2     0.900000E-01   1.00800           0   0.00000     -0.301140E-02
     24052 MEMB     194      PMPE     H13Y     HAL2     0.900000E-01   1.00800           0   0.00000     -0.301140E-02
     24053 MEMB     194      PMPE     C314     CTL2    -0.180000       12.0110           0   0.00000     -0.301140E-02
     24054 MEMB     194      PMPE     H14X     HAL2     0.900000E-01   1.00800           0   0.00000     -0.301140E-02
     24055 MEMB     194      PMPE     H14Y     HAL2     0.900000E-01   1.00800           0   0.00000     -0.301140E-02
     24056 MEMB     194      PMPE     C315     CTL2    -0.180000       12.0110           0   0.00000     -0.301140E-02
     24057 MEMB     194      PMPE     H15X     HAL2     0.900000E-01   1.00800           0   0.00000     -0.301140E-02
     24058 MEMB     194      PMPE     H15Y     HAL2     0.900000E-01   1.00800           0   0.00000     -0.301140E-02
     24059 MEMB     194      PMPE     C316     CTL3    -0.270000       12.0110           0   0.00000     -0.301140E-02
     24060 MEMB     194      PMPE     H16X     HAL3     0.900000E-01   1.00800           0   0.00000     -0.301140E-02
     24061 MEMB     194      PMPE     H16Y     HAL3     0.900000E-01   1.00800           0   0.00000     -0.301140E-02
     24062 MEMB     194      PMPE     H16Z     HAL3     0.900000E-01   1.00800           0   0.00000     -0.301140E-02
     24063 MEMB     195      POPE     N        NH3L    -0.300000       14.0070           0   0.00000     -0.301140E-02
     24064 MEMB     195      POPE     HN1      HCL      0.330000       1.00800           0   0.00000     -0.301140E-02
     24065 MEMB     195      POPE     HN2      HCL      0.330000       1.00800           0   0.00000     -0.301140E-02
     24066 MEMB     195      POPE     HN3      HCL      0.330000       1.00800           0   0.00000     -0.301140E-02
     24067 MEMB     195      POPE     C12      CTL2     0.130000       12.0110           0   0.00000     -0.301140E-02
     24068 MEMB     195      POPE     H12A     HAL2     0.900000E-01   1.00800           0   0.00000     -0.301140E-02
     24069 MEMB     195      POPE     H12B     HAL2     0.900000E-01   1.00800           0   0.00000     -0.301140E-02
     24070 MEMB     195      POPE     C11      CTL2    -0.800000E-01   12.0110           0   0.00000     -0.301140E-02
     24071 MEMB     195      POPE     H11A     HAL2     0.900000E-01   1.00800           0   0.00000     -0.301140E-02
     24072 MEMB     195      POPE     H11B     HAL2     0.900000E-01   1.00800           0   0.00000     -0.301140E-02
     24073 MEMB     195      POPE     P        PL        1.50000       30.9740           0   0.00000     -0.301140E-02
     24074 MEMB     195      POPE     O13      O2L     -0.780000       15.9994           0   0.00000     -0.301140E-02
     24075 MEMB     195      POPE     O14      O2L     -0.780000       15.9994           0   0.00000     -0.301140E-02
     24076 MEMB     195      POPE     O11      OSLP    -0.570000       15.9994           0   0.00000     -0.301140E-02
     24077 MEMB     195      POPE     O12      OSLP    -0.570000       15.9994           0   0.00000     -0.301140E-02
     24078 MEMB     195      POPE     C1       CTL2    -0.800000E-01   12.0110           0   0.00000     -0.301140E-02
     24079 MEMB     195      POPE     HA       HAL2     0.900000E-01   1.00800           0   0.00000     -0.301140E-02
     24080 MEMB     195      POPE     HB       HAL2     0.900000E-01   1.00800           0   0.00000     -0.301140E-02
     24081 MEMB     195      POPE     C2       CTL1     0.170000       12.0110           0   0.00000     -0.301140E-02
     24082 MEMB     195      POPE     HS       HAL1     0.900000E-01   1.00800           0   0.00000     -0.301140E-02
     24083 MEMB     195      POPE     O21      OSL     -0.490000       15.9994           0   0.00000     -0.301140E-02
     24084 MEMB     195      POPE     C21      CL       0.900000       12.0110           0   0.00000     -0.301140E-02
     24085 MEMB     195      POPE     O22      OBL     -0.630000       15.9994           0   0.00000     -0.301140E-02
     24086 MEMB     195      POPE     C22      CTL2    -0.220000       12.0110           0   0.00000     -0.301140E-02
     24087 MEMB     195      POPE     H2R      HAL2     0.900000E-01   1.00800           0   0.00000     -0.301140E-02
     24088 MEMB     195      POPE     H2S      HAL2     0.900000E-01   1.00800           0   0.00000     -0.301140E-02
     24089 MEMB     195      POPE     C3       CTL2     0.800000E-01   12.0110           0   0.00000     -0.301140E-02
     24090 MEMB     195      POPE     HX       HAL2     0.900000E-01   1.00800           0   0.00000     -0.301140E-02
     24091 MEMB     195      POPE     HY       HAL2     0.900000E-01   1.00800           0   0.00000     -0.301140E-02
     24092 MEMB     195      POPE     O31      OSL     -0.490000       15.9994           0   0.00000     -0.301140E-02
     24093 MEMB     195      POPE     C31      CL       0.900000       12.0110           0   0.00000     -0.301140E-02
     24094 MEMB     195      POPE     O32      OBL     -0.630000       15.9994           0   0.00000     -0.301140E-02
     24095 MEMB     195      POPE     C32      CTL2    -0.220000       12.0110           0   0.00000     -0.301140E-02
     24096 MEMB     195      POPE     H2X      HAL2     0.900000E-01   1.00800           0   0.00000     -0.301140E-02
     24097 MEMB     195      POPE     H2Y      HAL2     0.900000E-01   1.00800           0   0.00000     -0.301140E-02
     24098 MEMB     195      POPE     C23      CTL2    -0.180000       12.0110           0   0.00000     -0.301140E-02
     24099 MEMB     195      POPE     H3R      HAL2     0.900000E-01   1.00800           0   0.00000     -0.301140E-02
     24100 MEMB     195      POPE     H3S      HAL2     0.900000E-01   1.00800           0   0.00000     -0.301140E-02
     24101 MEMB     195      POPE     C24      CTL2    -0.180000       12.0110           0   0.00000     -0.301140E-02
     24102 MEMB     195      POPE     H4R      HAL2     0.900000E-01   1.00800           0   0.00000     -0.301140E-02
     24103 MEMB     195      POPE     H4S      HAL2     0.900000E-01   1.00800           0   0.00000     -0.301140E-02
     24104 MEMB     195      POPE     C25      CTL2    -0.180000       12.0110           0   0.00000     -0.301140E-02
     24105 MEMB     195      POPE     H5R      HAL2     0.900000E-01   1.00800           0   0.00000     -0.301140E-02
     24106 MEMB     195      POPE     H5S      HAL2     0.900000E-01   1.00800           0   0.00000     -0.301140E-02
     24107 MEMB     195      POPE     C26      CTL2    -0.180000       12.0110           0   0.00000     -0.301140E-02
     24108 MEMB     195      POPE     H6R      HAL2     0.900000E-01   1.00800           0   0.00000     -0.301140E-02
     24109 MEMB     195      POPE     H6S      HAL2     0.900000E-01   1.00800           0   0.00000     -0.301140E-02
     24110 MEMB     195      POPE     C27      CTL2    -0.180000       12.0110           0   0.00000     -0.301140E-02
     24111 MEMB     195      POPE     H7R      HAL2     0.900000E-01   1.00800           0   0.00000     -0.301140E-02
     24112 MEMB     195      POPE     H7S      HAL2     0.900000E-01   1.00800           0   0.00000     -0.301140E-02
     24113 MEMB     195      POPE     C28      CTL2    -0.180000       12.0110           0   0.00000     -0.301140E-02
     24114 MEMB     195      POPE     H8R      HAL2     0.900000E-01   1.00800           0   0.00000     -0.301140E-02
     24115 MEMB     195      POPE     H8S      HAL2     0.900000E-01   1.00800           0   0.00000     -0.301140E-02
     24116 MEMB     195      POPE     C29      CEL1    -0.150000       12.0110           0   0.00000     -0.301140E-02
     24117 MEMB     195      POPE     H91      HEL1     0.150000       1.00800           0   0.00000     -0.301140E-02
     24118 MEMB     195      POPE     C210     CEL1    -0.150000       12.0110           0   0.00000     -0.301140E-02
     24119 MEMB     195      POPE     H101     HEL1     0.150000       1.00800           0   0.00000     -0.301140E-02
     24120 MEMB     195      POPE     C211     CTL2    -0.180000       12.0110           0   0.00000     -0.301140E-02
     24121 MEMB     195      POPE     H11R     HAL2     0.900000E-01   1.00800           0   0.00000     -0.301140E-02
     24122 MEMB     195      POPE     H11S     HAL2     0.900000E-01   1.00800           0   0.00000     -0.301140E-02
     24123 MEMB     195      POPE     C212     CTL2    -0.180000       12.0110           0   0.00000     -0.301140E-02
     24124 MEMB     195      POPE     H12R     HAL2     0.900000E-01   1.00800           0   0.00000     -0.301140E-02
     24125 MEMB     195      POPE     H12S     HAL2     0.900000E-01   1.00800           0   0.00000     -0.301140E-02
     24126 MEMB     195      POPE     C213     CTL2    -0.180000       12.0110           0   0.00000     -0.301140E-02
     24127 MEMB     195      POPE     H13R     HAL2     0.900000E-01   1.00800           0   0.00000     -0.301140E-02
     24128 MEMB     195      POPE     H13S     HAL2     0.900000E-01   1.00800           0   0.00000     -0.301140E-02
     24129 MEMB     195      POPE     C214     CTL2    -0.180000       12.0110           0   0.00000     -0.301140E-02
     24130 MEMB     195      POPE     H14R     HAL2     0.900000E-01   1.00800           0   0.00000     -0.301140E-02
     24131 MEMB     195      POPE     H14S     HAL2     0.900000E-01   1.00800           0   0.00000     -0.301140E-02
     24132 MEMB     195      POPE     C215     CTL2    -0.180000       12.0110           0   0.00000     -0.301140E-02
     24133 MEMB     195      POPE     H15R     HAL2     0.900000E-01   1.00800           0   0.00000     -0.301140E-02
     24134 MEMB     195      POPE     H15S     HAL2     0.900000E-01   1.00800           0   0.00000     -0.301140E-02
     24135 MEMB     195      POPE     C216     CTL2    -0.180000       12.0110           0   0.00000     -0.301140E-02
     24136 MEMB     195      POPE     H16R     HAL2     0.900000E-01   1.00800           0   0.00000     -0.301140E-02
     24137 MEMB     195      POPE     H16S     HAL2     0.900000E-01   1.00800           0   0.00000     -0.301140E-02
     24138 MEMB     195      POPE     C217     CTL2    -0.180000       12.0110           0   0.00000     -0.301140E-02
     24139 MEMB     195      POPE     H17R     HAL2     0.900000E-01   1.00800           0   0.00000     -0.301140E-02
     24140 MEMB     195      POPE     H17S     HAL2     0.900000E-01   1.00800           0   0.00000     -0.301140E-02
     24141 MEMB     195      POPE     C218     CTL3    -0.270000       12.0110           0   0.00000     -0.301140E-02
     24142 MEMB     195      POPE     H18R     HAL3     0.900000E-01   1.00800           0   0.00000     -0.301140E-02
     24143 MEMB     195      POPE     H18S     HAL3     0.900000E-01   1.00800           0   0.00000     -0.301140E-02
     24144 MEMB     195      POPE     H18T     HAL3     0.900000E-01   1.00800           0   0.00000     -0.301140E-02
     24145 MEMB     195      POPE     C33      CTL2    -0.180000       12.0110           0   0.00000     -0.301140E-02
     24146 MEMB     195      POPE     H3X      HAL2     0.900000E-01   1.00800           0   0.00000     -0.301140E-02
     24147 MEMB     195      POPE     H3Y      HAL2     0.900000E-01   1.00800           0   0.00000     -0.301140E-02
     24148 MEMB     195      POPE     C34      CTL2    -0.180000       12.0110           0   0.00000     -0.301140E-02
     24149 MEMB     195      POPE     H4X      HAL2     0.900000E-01   1.00800           0   0.00000     -0.301140E-02
     24150 MEMB     195      POPE     H4Y      HAL2     0.900000E-01   1.00800           0   0.00000     -0.301140E-02
     24151 MEMB     195      POPE     C35      CTL2    -0.180000       12.0110           0   0.00000     -0.301140E-02
     24152 MEMB     195      POPE     H5X      HAL2     0.900000E-01   1.00800           0   0.00000     -0.301140E-02
     24153 MEMB     195      POPE     H5Y      HAL2     0.900000E-01   1.00800           0   0.00000     -0.301140E-02
     24154 MEMB     195      POPE     C36      CTL2    -0.180000       12.0110           0   0.00000     -0.301140E-02
     24155 MEMB     195      POPE     H6X      HAL2     0.900000E-01   1.00800           0   0.00000     -0.301140E-02
     24156 MEMB     195      POPE     H6Y      HAL2     0.900000E-01   1.00800           0   0.00000     -0.301140E-02
     24157 MEMB     195      POPE     C37      CTL2    -0.180000       12.0110           0   0.00000     -0.301140E-02
     24158 MEMB     195      POPE     H7X      HAL2     0.900000E-01   1.00800           0   0.00000     -0.301140E-02
     24159 MEMB     195      POPE     H7Y      HAL2     0.900000E-01   1.00800           0   0.00000     -0.301140E-02
     24160 MEMB     195      POPE     C38      CTL2    -0.180000       12.0110           0   0.00000     -0.301140E-02
     24161 MEMB     195      POPE     H8X      HAL2     0.900000E-01   1.00800           0   0.00000     -0.301140E-02
     24162 MEMB     195      POPE     H8Y      HAL2     0.900000E-01   1.00800           0   0.00000     -0.301140E-02
     24163 MEMB     195      POPE     C39      CTL2    -0.180000       12.0110           0   0.00000     -0.301140E-02
     24164 MEMB     195      POPE     H9X      HAL2     0.900000E-01   1.00800           0   0.00000     -0.301140E-02
     24165 MEMB     195      POPE     H9Y      HAL2     0.900000E-01   1.00800           0   0.00000     -0.301140E-02
     24166 MEMB     195      POPE     C310     CTL2    -0.180000       12.0110           0   0.00000     -0.301140E-02
     24167 MEMB     195      POPE     H10X     HAL2     0.900000E-01   1.00800           0   0.00000     -0.301140E-02
     24168 MEMB     195      POPE     H10Y     HAL2     0.900000E-01   1.00800           0   0.00000     -0.301140E-02
     24169 MEMB     195      POPE     C311     CTL2    -0.180000       12.0110           0   0.00000     -0.301140E-02
     24170 MEMB     195      POPE     H11X     HAL2     0.900000E-01   1.00800           0   0.00000     -0.301140E-02
     24171 MEMB     195      POPE     H11Y     HAL2     0.900000E-01   1.00800           0   0.00000     -0.301140E-02
     24172 MEMB     195      POPE     C312     CTL2    -0.180000       12.0110           0   0.00000     -0.301140E-02
     24173 MEMB     195      POPE     H12X     HAL2     0.900000E-01   1.00800           0   0.00000     -0.301140E-02
     24174 MEMB     195      POPE     H12Y     HAL2     0.900000E-01   1.00800           0   0.00000     -0.301140E-02
     24175 MEMB     195      POPE     C313     CTL2    -0.180000       12.0110           0   0.00000     -0.301140E-02
     24176 MEMB     195      POPE     H13X     HAL2     0.900000E-01   1.00800           0   0.00000     -0.301140E-02
     24177 MEMB     195      POPE     H13Y     HAL2     0.900000E-01   1.00800           0   0.00000     -0.301140E-02
     24178 MEMB     195      POPE     C314     CTL2    -0.180000       12.0110           0   0.00000     -0.301140E-02
     24179 MEMB     195      POPE     H14X     HAL2     0.900000E-01   1.00800           0   0.00000     -0.301140E-02
     24180 MEMB     195      POPE     H14Y     HAL2     0.900000E-01   1.00800           0   0.00000     -0.301140E-02
     24181 MEMB     195      POPE     C315     CTL2    -0.180000       12.0110           0   0.00000     -0.301140E-02
     24182 MEMB     195      POPE     H15X     HAL2     0.900000E-01   1.00800           0   0.00000     -0.301140E-02
     24183 MEMB     195      POPE     H15Y     HAL2     0.900000E-01   1.00800           0   0.00000     -0.301140E-02
     24184 MEMB     195      POPE     C316     CTL3    -0.270000       12.0110           0   0.00000     -0.301140E-02
     24185 MEMB     195      POPE     H16X     HAL3     0.900000E-01   1.00800           0   0.00000     -0.301140E-02
     24186 MEMB     195      POPE     H16Y     HAL3     0.900000E-01   1.00800           0   0.00000     -0.301140E-02
     24187 MEMB     195      POPE     H16Z     HAL3     0.900000E-01   1.00800           0   0.00000     -0.301140E-02
     24188 MEMB     196      PVCL2    C3       CTL2    -0.800000E-01   12.0110           0   0.00000     -0.301140E-02
     24189 MEMB     196      PVCL2    HG31     HAL2     0.900000E-01   1.00800           0   0.00000     -0.301140E-02
     24190 MEMB     196      PVCL2    HG32     HAL2     0.900000E-01   1.00800           0   0.00000     -0.301140E-02
     24191 MEMB     196      PVCL2    P3       PL        1.50000       30.9740           0   0.00000     -0.301140E-02
     24192 MEMB     196      PVCL2    OP33     O2L     -0.780000       15.9994           0   0.00000     -0.301140E-02
     24193 MEMB     196      PVCL2    OP34     O2L     -0.780000       15.9994           0   0.00000     -0.301140E-02
     24194 MEMB     196      PVCL2    OP31     OSLP    -0.570000       15.9994           0   0.00000     -0.301140E-02
     24195 MEMB     196      PVCL2    OP32     OSLP    -0.570000       15.9994           0   0.00000     -0.301140E-02
     24196 MEMB     196      PVCL2    C31      CTL2    -0.800000E-01   12.0110           0   0.00000     -0.301140E-02
     24197 MEMB     196      PVCL2    H31J     HAL2     0.900000E-01   1.00800           0   0.00000     -0.301140E-02
     24198 MEMB     196      PVCL2    H31K     HAL2     0.900000E-01   1.00800           0   0.00000     -0.301140E-02
     24199 MEMB     196      PVCL2    C2       CTL1     0.140000       12.0110           0   0.00000     -0.301140E-02
     24200 MEMB     196      PVCL2    HG22     HAL1     0.900000E-01   1.00800           0   0.00000     -0.301140E-02
     24201 MEMB     196      PVCL2    OG12     OHL     -0.650000       15.9994           0   0.00000     -0.301140E-02
     24202 MEMB     196      PVCL2    HO12     HOL      0.420000       1.00800           0   0.00000     -0.301140E-02
     24203 MEMB     196      PVCL2    C1       CTL2    -0.800000E-01   12.0110           0   0.00000     -0.301140E-02
     24204 MEMB     196      PVCL2    HG11     HAL2     0.900000E-01   1.00800           0   0.00000     -0.301140E-02
     24205 MEMB     196      PVCL2    HG12     HAL2     0.900000E-01   1.00800           0   0.00000     -0.301140E-02
     24206 MEMB     196      PVCL2    P1       PL        1.50000       30.9740           0   0.00000     -0.301140E-02
     24207 MEMB     196      PVCL2    OP13     O2L     -0.780000       15.9994           0   0.00000     -0.301140E-02
     24208 MEMB     196      PVCL2    OP14     O2L     -0.780000       15.9994           0   0.00000     -0.301140E-02
     24209 MEMB     196      PVCL2    OP11     OSLP    -0.570000       15.9994           0   0.00000     -0.301140E-02
     24210 MEMB     196      PVCL2    OP12     OSLP    -0.570000       15.9994           0   0.00000     -0.301140E-02
     24211 MEMB     196      PVCL2    C11      CTL2    -0.800000E-01   12.0110           0   0.00000     -0.301140E-02
     24212 MEMB     196      PVCL2    H11J     HAL2     0.900000E-01   1.00800           0   0.00000     -0.301140E-02
     24213 MEMB     196      PVCL2    H11K     HAL2     0.900000E-01   1.00800           0   0.00000     -0.301140E-02
     24214 MEMB     196      PVCL2    C12      CTL1     0.170000       12.0110           0   0.00000     -0.301140E-02
     24215 MEMB     196      PVCL2    H12J     HAL1     0.900000E-01   1.00800           0   0.00000     -0.301140E-02
     24216 MEMB     196      PVCL2    O12      OSL     -0.490000       15.9994           0   0.00000     -0.301140E-02
     24217 MEMB     196      PVCL2    CA1      CL       0.900000       12.0110           0   0.00000     -0.301140E-02
     24218 MEMB     196      PVCL2    OA1      OBL     -0.630000       15.9994           0   0.00000     -0.301140E-02
     24219 MEMB     196      PVCL2    CA2      CTL2    -0.220000       12.0110           0   0.00000     -0.301140E-02
     24220 MEMB     196      PVCL2    H2A      HAL2     0.900000E-01   1.00800           0   0.00000     -0.301140E-02
     24221 MEMB     196      PVCL2    H2B      HAL2     0.900000E-01   1.00800           0   0.00000     -0.301140E-02
     24222 MEMB     196      PVCL2    C13      CTL2     0.800000E-01   12.0110           0   0.00000     -0.301140E-02
     24223 MEMB     196      PVCL2    H13J     HAL2     0.900000E-01   1.00800           0   0.00000     -0.301140E-02
     24224 MEMB     196      PVCL2    H13K     HAL2     0.900000E-01   1.00800           0   0.00000     -0.301140E-02
     24225 MEMB     196      PVCL2    O13      OSL     -0.490000       15.9994           0   0.00000     -0.301140E-02
     24226 MEMB     196      PVCL2    CB1      CL       0.900000       12.0110           0   0.00000     -0.301140E-02
     24227 MEMB     196      PVCL2    OB1      OBL     -0.630000       15.9994           0   0.00000     -0.301140E-02
     24228 MEMB     196      PVCL2    CB2      CTL2    -0.220000       12.0110           0   0.00000     -0.301140E-02
     24229 MEMB     196      PVCL2    H2D      HAL2     0.900000E-01   1.00800           0   0.00000     -0.301140E-02
     24230 MEMB     196      PVCL2    H2E      HAL2     0.900000E-01   1.00800           0   0.00000     -0.301140E-02
     24231 MEMB     196      PVCL2    C32      CTL1     0.170000       12.0110           0   0.00000     -0.301140E-02
     24232 MEMB     196      PVCL2    H32J     HAL1     0.900000E-01   1.00800           0   0.00000     -0.301140E-02
     24233 MEMB     196      PVCL2    O32      OSL     -0.490000       15.9994           0   0.00000     -0.301140E-02
     24234 MEMB     196      PVCL2    CC1      CL       0.900000       12.0110           0   0.00000     -0.301140E-02
     24235 MEMB     196      PVCL2    OC1      OBL     -0.630000       15.9994           0   0.00000     -0.301140E-02
     24236 MEMB     196      PVCL2    CC2      CTL2    -0.220000       12.0110           0   0.00000     -0.301140E-02
     24237 MEMB     196      PVCL2    H2R      HAL2     0.900000E-01   1.00800           0   0.00000     -0.301140E-02
     24238 MEMB     196      PVCL2    H2S      HAL2     0.900000E-01   1.00800           0   0.00000     -0.301140E-02
     24239 MEMB     196      PVCL2    C33      CTL2     0.800000E-01   12.0110           0   0.00000     -0.301140E-02
     24240 MEMB     196      PVCL2    H33J     HAL2     0.900000E-01   1.00800           0   0.00000     -0.301140E-02
     24241 MEMB     196      PVCL2    H33K     HAL2     0.900000E-01   1.00800           0   0.00000     -0.301140E-02
     24242 MEMB     196      PVCL2    O33      OSL     -0.490000       15.9994           0   0.00000     -0.301140E-02
     24243 MEMB     196      PVCL2    CD1      CL       0.900000       12.0110           0   0.00000     -0.301140E-02
     24244 MEMB     196      PVCL2    OD1      OBL     -0.630000       15.9994           0   0.00000     -0.301140E-02
     24245 MEMB     196      PVCL2    CD2      CTL2    -0.220000       12.0110           0   0.00000     -0.301140E-02
     24246 MEMB     196      PVCL2    H2X      HAL2     0.900000E-01   1.00800           0   0.00000     -0.301140E-02
     24247 MEMB     196      PVCL2    H2Y      HAL2     0.900000E-01   1.00800           0   0.00000     -0.301140E-02
     24248 MEMB     196      PVCL2    CA3      CTL2    -0.180000       12.0110           0   0.00000     -0.301140E-02
     24249 MEMB     196      PVCL2    H3A      HAL2     0.900000E-01   1.00800           0   0.00000     -0.301140E-02
     24250 MEMB     196      PVCL2    H3B      HAL2     0.900000E-01   1.00800           0   0.00000     -0.301140E-02
     24251 MEMB     196      PVCL2    CA4      CTL2    -0.180000       12.0110           0   0.00000     -0.301140E-02
     24252 MEMB     196      PVCL2    H4A      HAL2     0.900000E-01   1.00800           0   0.00000     -0.301140E-02
     24253 MEMB     196      PVCL2    H4B      HAL2     0.900000E-01   1.00800           0   0.00000     -0.301140E-02
     24254 MEMB     196      PVCL2    CA5      CTL2    -0.180000       12.0110           0   0.00000     -0.301140E-02
     24255 MEMB     196      PVCL2    H5A      HAL2     0.900000E-01   1.00800           0   0.00000     -0.301140E-02
     24256 MEMB     196      PVCL2    H5B      HAL2     0.900000E-01   1.00800           0   0.00000     -0.301140E-02
     24257 MEMB     196      PVCL2    CA6      CTL2    -0.180000       12.0110           0   0.00000     -0.301140E-02
     24258 MEMB     196      PVCL2    H6A      HAL2     0.900000E-01   1.00800           0   0.00000     -0.301140E-02
     24259 MEMB     196      PVCL2    H6B      HAL2     0.900000E-01   1.00800           0   0.00000     -0.301140E-02
     24260 MEMB     196      PVCL2    CA7      CTL2    -0.180000       12.0110           0   0.00000     -0.301140E-02
     24261 MEMB     196      PVCL2    H7A      HAL2     0.900000E-01   1.00800           0   0.00000     -0.301140E-02
     24262 MEMB     196      PVCL2    H7B      HAL2     0.900000E-01   1.00800           0   0.00000     -0.301140E-02
     24263 MEMB     196      PVCL2    CA8      CTL2    -0.180000       12.0110           0   0.00000     -0.301140E-02
     24264 MEMB     196      PVCL2    H8A      HAL2     0.900000E-01   1.00800           0   0.00000     -0.301140E-02
     24265 MEMB     196      PVCL2    H8B      HAL2     0.900000E-01   1.00800           0   0.00000     -0.301140E-02
     24266 MEMB     196      PVCL2    CA9      CTL2    -0.180000       12.0110           0   0.00000     -0.301140E-02
     24267 MEMB     196      PVCL2    H9A      HAL2     0.900000E-01   1.00800           0   0.00000     -0.301140E-02
     24268 MEMB     196      PVCL2    H9B      HAL2     0.900000E-01   1.00800           0   0.00000     -0.301140E-02
     24269 MEMB     196      PVCL2    CA10     CTL2    -0.180000       12.0110           0   0.00000     -0.301140E-02
     24270 MEMB     196      PVCL2    H10A     HAL2     0.900000E-01   1.00800           0   0.00000     -0.301140E-02
     24271 MEMB     196      PVCL2    H10B     HAL2     0.900000E-01   1.00800           0   0.00000     -0.301140E-02
     24272 MEMB     196      PVCL2    CA11     CEL1    -0.150000       12.0110           0   0.00000     -0.301140E-02
     24273 MEMB     196      PVCL2    H11A     HEL1     0.150000       1.00800           0   0.00000     -0.301140E-02
     24274 MEMB     196      PVCL2    CA12     CEL1    -0.150000       12.0110           0   0.00000     -0.301140E-02
     24275 MEMB     196      PVCL2    H12A     HEL1     0.150000       1.00800           0   0.00000     -0.301140E-02
     24276 MEMB     196      PVCL2    CA13     CTL2    -0.180000       12.0110           0   0.00000     -0.301140E-02
     24277 MEMB     196      PVCL2    H13A     HAL2     0.900000E-01   1.00800           0   0.00000     -0.301140E-02
     24278 MEMB     196      PVCL2    H13B     HAL2     0.900000E-01   1.00800           0   0.00000     -0.301140E-02
     24279 MEMB     196      PVCL2    CA14     CTL2    -0.180000       12.0110           0   0.00000     -0.301140E-02
     24280 MEMB     196      PVCL2    H14A     HAL2     0.900000E-01   1.00800           0   0.00000     -0.301140E-02
     24281 MEMB     196      PVCL2    H14B     HAL2     0.900000E-01   1.00800           0   0.00000     -0.301140E-02
     24282 MEMB     196      PVCL2    CA15     CTL2    -0.180000       12.0110           0   0.00000     -0.301140E-02
     24283 MEMB     196      PVCL2    H15A     HAL2     0.900000E-01   1.00800           0   0.00000     -0.301140E-02
     24284 MEMB     196      PVCL2    H15B     HAL2     0.900000E-01   1.00800           0   0.00000     -0.301140E-02
     24285 MEMB     196      PVCL2    CA16     CTL2    -0.180000       12.0110           0   0.00000     -0.301140E-02
     24286 MEMB     196      PVCL2    H16A     HAL2     0.900000E-01   1.00800           0   0.00000     -0.301140E-02
     24287 MEMB     196      PVCL2    H16B     HAL2     0.900000E-01   1.00800           0   0.00000     -0.301140E-02
     24288 MEMB     196      PVCL2    CA17     CTL2    -0.180000       12.0110           0   0.00000     -0.301140E-02
     24289 MEMB     196      PVCL2    H17A     HAL2     0.900000E-01   1.00800           0   0.00000     -0.301140E-02
     24290 MEMB     196      PVCL2    H17B     HAL2     0.900000E-01   1.00800           0   0.00000     -0.301140E-02
     24291 MEMB     196      PVCL2    CA18     CTL3    -0.270000       12.0110           0   0.00000     -0.301140E-02
     24292 MEMB     196      PVCL2    H18A     HAL3     0.900000E-01   1.00800           0   0.00000     -0.301140E-02
     24293 MEMB     196      PVCL2    H18B     HAL3     0.900000E-01   1.00800           0   0.00000     -0.301140E-02
     24294 MEMB     196      PVCL2    H18C     HAL3     0.900000E-01   1.00800           0   0.00000     -0.301140E-02
     24295 MEMB     196      PVCL2    CB3      CTL2    -0.180000       12.0110           0   0.00000     -0.301140E-02
     24296 MEMB     196      PVCL2    H3D      HAL2     0.900000E-01   1.00800           0   0.00000     -0.301140E-02
     24297 MEMB     196      PVCL2    H3E      HAL2     0.900000E-01   1.00800           0   0.00000     -0.301140E-02
     24298 MEMB     196      PVCL2    CB4      CTL2    -0.180000       12.0110           0   0.00000     -0.301140E-02
     24299 MEMB     196      PVCL2    H4D      HAL2     0.900000E-01   1.00800           0   0.00000     -0.301140E-02
     24300 MEMB     196      PVCL2    H4E      HAL2     0.900000E-01   1.00800           0   0.00000     -0.301140E-02
     24301 MEMB     196      PVCL2    CB5      CTL2    -0.180000       12.0110           0   0.00000     -0.301140E-02
     24302 MEMB     196      PVCL2    H5D      HAL2     0.900000E-01   1.00800           0   0.00000     -0.301140E-02
     24303 MEMB     196      PVCL2    H5E      HAL2     0.900000E-01   1.00800           0   0.00000     -0.301140E-02
     24304 MEMB     196      PVCL2    CB6      CTL2    -0.180000       12.0110           0   0.00000     -0.301140E-02
     24305 MEMB     196      PVCL2    H6D      HAL2     0.900000E-01   1.00800           0   0.00000     -0.301140E-02
     24306 MEMB     196      PVCL2    H6E      HAL2     0.900000E-01   1.00800           0   0.00000     -0.301140E-02
     24307 MEMB     196      PVCL2    CB7      CTL2    -0.180000       12.0110           0   0.00000     -0.301140E-02
     24308 MEMB     196      PVCL2    H7D      HAL2     0.900000E-01   1.00800           0   0.00000     -0.301140E-02
     24309 MEMB     196      PVCL2    H7E      HAL2     0.900000E-01   1.00800           0   0.00000     -0.301140E-02
     24310 MEMB     196      PVCL2    CB8      CTL2    -0.180000       12.0110           0   0.00000     -0.301140E-02
     24311 MEMB     196      PVCL2    H8D      HAL2     0.900000E-01   1.00800           0   0.00000     -0.301140E-02
     24312 MEMB     196      PVCL2    H8E      HAL2     0.900000E-01   1.00800           0   0.00000     -0.301140E-02
     24313 MEMB     196      PVCL2    CB9      CTL2    -0.180000       12.0110           0   0.00000     -0.301140E-02
     24314 MEMB     196      PVCL2    H9D      HAL2     0.900000E-01   1.00800           0   0.00000     -0.301140E-02
     24315 MEMB     196      PVCL2    H9E      HAL2     0.900000E-01   1.00800           0   0.00000     -0.301140E-02
     24316 MEMB     196      PVCL2    CB10     CTL2    -0.180000       12.0110           0   0.00000     -0.301140E-02
     24317 MEMB     196      PVCL2    H10D     HAL2     0.900000E-01   1.00800           0   0.00000     -0.301140E-02
     24318 MEMB     196      PVCL2    H10E     HAL2     0.900000E-01   1.00800           0   0.00000     -0.301140E-02
     24319 MEMB     196      PVCL2    CB11     CTL2    -0.180000       12.0110           0   0.00000     -0.301140E-02
     24320 MEMB     196      PVCL2    H11D     HAL2     0.900000E-01   1.00800           0   0.00000     -0.301140E-02
     24321 MEMB     196      PVCL2    H11E     HAL2     0.900000E-01   1.00800           0   0.00000     -0.301140E-02
     24322 MEMB     196      PVCL2    CB12     CTL2    -0.180000       12.0110           0   0.00000     -0.301140E-02
     24323 MEMB     196      PVCL2    H12D     HAL2     0.900000E-01   1.00800           0   0.00000     -0.301140E-02
     24324 MEMB     196      PVCL2    H12E     HAL2     0.900000E-01   1.00800           0   0.00000     -0.301140E-02
     24325 MEMB     196      PVCL2    CB13     CTL2    -0.180000       12.0110           0   0.00000     -0.301140E-02
     24326 MEMB     196      PVCL2    H13D     HAL2     0.900000E-01   1.00800           0   0.00000     -0.301140E-02
     24327 MEMB     196      PVCL2    H13E     HAL2     0.900000E-01   1.00800           0   0.00000     -0.301140E-02
     24328 MEMB     196      PVCL2    CB14     CTL2    -0.180000       12.0110           0   0.00000     -0.301140E-02
     24329 MEMB     196      PVCL2    H14D     HAL2     0.900000E-01   1.00800           0   0.00000     -0.301140E-02
     24330 MEMB     196      PVCL2    H14E     HAL2     0.900000E-01   1.00800           0   0.00000     -0.301140E-02
     24331 MEMB     196      PVCL2    CB15     CTL2    -0.180000       12.0110           0   0.00000     -0.301140E-02
     24332 MEMB     196      PVCL2    H15D     HAL2     0.900000E-01   1.00800           0   0.00000     -0.301140E-02
     24333 MEMB     196      PVCL2    H15E     HAL2     0.900000E-01   1.00800           0   0.00000     -0.301140E-02
     24334 MEMB     196      PVCL2    CB16     CTL3    -0.270000       12.0110           0   0.00000     -0.301140E-02
     24335 MEMB     196      PVCL2    H16D     HAL3     0.900000E-01   1.00800           0   0.00000     -0.301140E-02
     24336 MEMB     196      PVCL2    H16E     HAL3     0.900000E-01   1.00800           0   0.00000     -0.301140E-02
     24337 MEMB     196      PVCL2    H16F     HAL3     0.900000E-01   1.00800           0   0.00000     -0.301140E-02
     24338 MEMB     196      PVCL2    CC3      CTL2    -0.180000       12.0110           0   0.00000     -0.301140E-02
     24339 MEMB     196      PVCL2    H3R      HAL2     0.900000E-01   1.00800           0   0.00000     -0.301140E-02
     24340 MEMB     196      PVCL2    H3S      HAL2     0.900000E-01   1.00800           0   0.00000     -0.301140E-02
     24341 MEMB     196      PVCL2    CC4      CTL2    -0.180000       12.0110           0   0.00000     -0.301140E-02
     24342 MEMB     196      PVCL2    H4R      HAL2     0.900000E-01   1.00800           0   0.00000     -0.301140E-02
     24343 MEMB     196      PVCL2    H4S      HAL2     0.900000E-01   1.00800           0   0.00000     -0.301140E-02
     24344 MEMB     196      PVCL2    CC5      CTL2    -0.180000       12.0110           0   0.00000     -0.301140E-02
     24345 MEMB     196      PVCL2    H5R      HAL2     0.900000E-01   1.00800           0   0.00000     -0.301140E-02
     24346 MEMB     196      PVCL2    H5S      HAL2     0.900000E-01   1.00800           0   0.00000     -0.301140E-02
     24347 MEMB     196      PVCL2    CC6      CTL2    -0.180000       12.0110           0   0.00000     -0.301140E-02
     24348 MEMB     196      PVCL2    H6R      HAL2     0.900000E-01   1.00800           0   0.00000     -0.301140E-02
     24349 MEMB     196      PVCL2    H6S      HAL2     0.900000E-01   1.00800           0   0.00000     -0.301140E-02
     24350 MEMB     196      PVCL2    CC7      CTL2    -0.180000       12.0110           0   0.00000     -0.301140E-02
     24351 MEMB     196      PVCL2    H7R      HAL2     0.900000E-01   1.00800           0   0.00000     -0.301140E-02
     24352 MEMB     196      PVCL2    H7S      HAL2     0.900000E-01   1.00800           0   0.00000     -0.301140E-02
     24353 MEMB     196      PVCL2    CC8      CTL2    -0.180000       12.0110           0   0.00000     -0.301140E-02
     24354 MEMB     196      PVCL2    H8R      HAL2     0.900000E-01   1.00800           0   0.00000     -0.301140E-02
     24355 MEMB     196      PVCL2    H8S      HAL2     0.900000E-01   1.00800           0   0.00000     -0.301140E-02
     24356 MEMB     196      PVCL2    CC9      CTL2    -0.180000       12.0110           0   0.00000     -0.301140E-02
     24357 MEMB     196      PVCL2    H9R      HAL2     0.900000E-01   1.00800           0   0.00000     -0.301140E-02
     24358 MEMB     196      PVCL2    H9S      HAL2     0.900000E-01   1.00800           0   0.00000     -0.301140E-02
     24359 MEMB     196      PVCL2    CC10     CTL2    -0.180000       12.0110           0   0.00000     -0.301140E-02
     24360 MEMB     196      PVCL2    H10R     HAL2     0.900000E-01   1.00800           0   0.00000     -0.301140E-02
     24361 MEMB     196      PVCL2    H10S     HAL2     0.900000E-01   1.00800           0   0.00000     -0.301140E-02
     24362 MEMB     196      PVCL2    CC11     CEL1    -0.150000       12.0110           0   0.00000     -0.301140E-02
     24363 MEMB     196      PVCL2    H11R     HEL1     0.150000       1.00800           0   0.00000     -0.301140E-02
     24364 MEMB     196      PVCL2    CC12     CEL1    -0.150000       12.0110           0   0.00000     -0.301140E-02
     24365 MEMB     196      PVCL2    H12R     HEL1     0.150000       1.00800           0   0.00000     -0.301140E-02
     24366 MEMB     196      PVCL2    CC13     CTL2    -0.180000       12.0110           0   0.00000     -0.301140E-02
     24367 MEMB     196      PVCL2    H13R     HAL2     0.900000E-01   1.00800           0   0.00000     -0.301140E-02
     24368 MEMB     196      PVCL2    H13S     HAL2     0.900000E-01   1.00800           0   0.00000     -0.301140E-02
     24369 MEMB     196      PVCL2    CC14     CTL2    -0.180000       12.0110           0   0.00000     -0.301140E-02
     24370 MEMB     196      PVCL2    H14R     HAL2     0.900000E-01   1.00800           0   0.00000     -0.301140E-02
     24371 MEMB     196      PVCL2    H14S     HAL2     0.900000E-01   1.00800           0   0.00000     -0.301140E-02
     24372 MEMB     196      PVCL2    CC15     CTL2    -0.180000       12.0110           0   0.00000     -0.301140E-02
     24373 MEMB     196      PVCL2    H15R     HAL2     0.900000E-01   1.00800           0   0.00000     -0.301140E-02
     24374 MEMB     196      PVCL2    H15S     HAL2     0.900000E-01   1.00800           0   0.00000     -0.301140E-02
     24375 MEMB     196      PVCL2    CC16     CTL2    -0.180000       12.0110           0   0.00000     -0.301140E-02
     24376 MEMB     196      PVCL2    H16R     HAL2     0.900000E-01   1.00800           0   0.00000     -0.301140E-02
     24377 MEMB     196      PVCL2    H16S     HAL2     0.900000E-01   1.00800           0   0.00000     -0.301140E-02
     24378 MEMB     196      PVCL2    CC17     CTL2    -0.180000       12.0110           0   0.00000     -0.301140E-02
     24379 MEMB     196      PVCL2    H17R     HAL2     0.900000E-01   1.00800           0   0.00000     -0.301140E-02
     24380 MEMB     196      PVCL2    H17S     HAL2     0.900000E-01   1.00800           0   0.00000     -0.301140E-02
     24381 MEMB     196      PVCL2    CC18     CTL3    -0.270000       12.0110           0   0.00000     -0.301140E-02
     24382 MEMB     196      PVCL2    H18R     HAL3     0.900000E-01   1.00800           0   0.00000     -0.301140E-02
     24383 MEMB     196      PVCL2    H18S     HAL3     0.900000E-01   1.00800           0   0.00000     -0.301140E-02
     24384 MEMB     196      PVCL2    H18T     HAL3     0.900000E-01   1.00800           0   0.00000     -0.301140E-02
     24385 MEMB     196      PVCL2    CD3      CTL2    -0.180000       12.0110           0   0.00000     -0.301140E-02
     24386 MEMB     196      PVCL2    H3X      HAL2     0.900000E-01   1.00800           0   0.00000     -0.301140E-02
     24387 MEMB     196      PVCL2    H3Y      HAL2     0.900000E-01   1.00800           0   0.00000     -0.301140E-02
     24388 MEMB     196      PVCL2    CD4      CTL2    -0.180000       12.0110           0   0.00000     -0.301140E-02
     24389 MEMB     196      PVCL2    H4X      HAL2     0.900000E-01   1.00800           0   0.00000     -0.301140E-02
     24390 MEMB     196      PVCL2    H4Y      HAL2     0.900000E-01   1.00800           0   0.00000     -0.301140E-02
     24391 MEMB     196      PVCL2    CD5      CTL2    -0.180000       12.0110           0   0.00000     -0.301140E-02
     24392 MEMB     196      PVCL2    H5X      HAL2     0.900000E-01   1.00800           0   0.00000     -0.301140E-02
     24393 MEMB     196      PVCL2    H5Y      HAL2     0.900000E-01   1.00800           0   0.00000     -0.301140E-02
     24394 MEMB     196      PVCL2    CD6      CTL2    -0.180000       12.0110           0   0.00000     -0.301140E-02
     24395 MEMB     196      PVCL2    H6X      HAL2     0.900000E-01   1.00800           0   0.00000     -0.301140E-02
     24396 MEMB     196      PVCL2    H6Y      HAL2     0.900000E-01   1.00800           0   0.00000     -0.301140E-02
     24397 MEMB     196      PVCL2    CD7      CTL2    -0.180000       12.0110           0   0.00000     -0.301140E-02
     24398 MEMB     196      PVCL2    H7X      HAL2     0.900000E-01   1.00800           0   0.00000     -0.301140E-02
     24399 MEMB     196      PVCL2    H7Y      HAL2     0.900000E-01   1.00800           0   0.00000     -0.301140E-02
     24400 MEMB     196      PVCL2    CD8      CTL2    -0.180000       12.0110           0   0.00000     -0.301140E-02
     24401 MEMB     196      PVCL2    H8X      HAL2     0.900000E-01   1.00800           0   0.00000     -0.301140E-02
     24402 MEMB     196      PVCL2    H8Y      HAL2     0.900000E-01   1.00800           0   0.00000     -0.301140E-02
     24403 MEMB     196      PVCL2    CD9      CTL2    -0.180000       12.0110           0   0.00000     -0.301140E-02
     24404 MEMB     196      PVCL2    H9X      HAL2     0.900000E-01   1.00800           0   0.00000     -0.301140E-02
     24405 MEMB     196      PVCL2    H9Y      HAL2     0.900000E-01   1.00800           0   0.00000     -0.301140E-02
     24406 MEMB     196      PVCL2    CD10     CTL2    -0.180000       12.0110           0   0.00000     -0.301140E-02
     24407 MEMB     196      PVCL2    H10X     HAL2     0.900000E-01   1.00800           0   0.00000     -0.301140E-02
     24408 MEMB     196      PVCL2    H10Y     HAL2     0.900000E-01   1.00800           0   0.00000     -0.301140E-02
     24409 MEMB     196      PVCL2    CD11     CTL2    -0.180000       12.0110           0   0.00000     -0.301140E-02
     24410 MEMB     196      PVCL2    H11X     HAL2     0.900000E-01   1.00800           0   0.00000     -0.301140E-02
     24411 MEMB     196      PVCL2    H11Y     HAL2     0.900000E-01   1.00800           0   0.00000     -0.301140E-02
     24412 MEMB     196      PVCL2    CD12     CTL2    -0.180000       12.0110           0   0.00000     -0.301140E-02
     24413 MEMB     196      PVCL2    H12X     HAL2     0.900000E-01   1.00800           0   0.00000     -0.301140E-02
     24414 MEMB     196      PVCL2    H12Y     HAL2     0.900000E-01   1.00800           0   0.00000     -0.301140E-02
     24415 MEMB     196      PVCL2    CD13     CTL2    -0.180000       12.0110           0   0.00000     -0.301140E-02
     24416 MEMB     196      PVCL2    H13X     HAL2     0.900000E-01   1.00800           0   0.00000     -0.301140E-02
     24417 MEMB     196      PVCL2    H13Y     HAL2     0.900000E-01   1.00800           0   0.00000     -0.301140E-02
     24418 MEMB     196      PVCL2    CD14     CTL2    -0.180000       12.0110           0   0.00000     -0.301140E-02
     24419 MEMB     196      PVCL2    H14X     HAL2     0.900000E-01   1.00800           0   0.00000     -0.301140E-02
     24420 MEMB     196      PVCL2    H14Y     HAL2     0.900000E-01   1.00800           0   0.00000     -0.301140E-02
     24421 MEMB     196      PVCL2    CD15     CTL2    -0.180000       12.0110           0   0.00000     -0.301140E-02
     24422 MEMB     196      PVCL2    H15X     HAL2     0.900000E-01   1.00800           0   0.00000     -0.301140E-02
     24423 MEMB     196      PVCL2    H15Y     HAL2     0.900000E-01   1.00800           0   0.00000     -0.301140E-02
     24424 MEMB     196      PVCL2    CD16     CTL3    -0.270000       12.0110           0   0.00000     -0.301140E-02
     24425 MEMB     196      PVCL2    H16X     HAL3     0.900000E-01   1.00800           0   0.00000     -0.301140E-02
     24426 MEMB     196      PVCL2    H16Y     HAL3     0.900000E-01   1.00800           0   0.00000     -0.301140E-02
     24427 MEMB     196      PVCL2    H16Z     HAL3     0.900000E-01   1.00800           0   0.00000     -0.301140E-02
     24428 MEMB     197      PMPG     C13      CTL2     0.500000E-01   12.0110           0   0.00000     -0.301140E-02
     24429 MEMB     197      PMPG     H13A     HAL2     0.900000E-01   1.00800           0   0.00000     -0.301140E-02
     24430 MEMB     197      PMPG     H13B     HAL2     0.900000E-01   1.00800           0   0.00000     -0.301140E-02
     24431 MEMB     197      PMPG     OC3      OHL     -0.660000       15.9994           0   0.00000     -0.301140E-02
     24432 MEMB     197      PMPG     HO3      HOL      0.430000       1.00800           0   0.00000     -0.301140E-02
     24433 MEMB     197      PMPG     C12      CTL1     0.140000       12.0110           0   0.00000     -0.301140E-02
     24434 MEMB     197      PMPG     H12A     HAL1     0.900000E-01   1.00800           0   0.00000     -0.301140E-02
     24435 MEMB     197      PMPG     OC2      OHL     -0.660000       15.9994           0   0.00000     -0.301140E-02
     24436 MEMB     197      PMPG     HO2      HOL      0.430000       1.00800           0   0.00000     -0.301140E-02
     24437 MEMB     197      PMPG     C11      CTL2    -0.800000E-01   12.0110           0   0.00000     -0.301140E-02
     24438 MEMB     197      PMPG     H11A     HAL2     0.900000E-01   1.00800           0   0.00000     -0.301140E-02
     24439 MEMB     197      PMPG     H11B     HAL2     0.900000E-01   1.00800           0   0.00000     -0.301140E-02
     24440 MEMB     197      PMPG     P        PL        1.50000       30.9740           0   0.00000     -0.301140E-02
     24441 MEMB     197      PMPG     O13      O2L     -0.780000       15.9994           0   0.00000     -0.301140E-02
     24442 MEMB     197      PMPG     O14      O2L     -0.780000       15.9994           0   0.00000     -0.301140E-02
     24443 MEMB     197      PMPG     O11      OSLP    -0.570000       15.9994           0   0.00000     -0.301140E-02
     24444 MEMB     197      PMPG     O12      OSLP    -0.570000       15.9994           0   0.00000     -0.301140E-02
     24445 MEMB     197      PMPG     C1       CTL2    -0.800000E-01   12.0110           0   0.00000     -0.301140E-02
     24446 MEMB     197      PMPG     HA       HAL2     0.900000E-01   1.00800           0   0.00000     -0.301140E-02
     24447 MEMB     197      PMPG     HB       HAL2     0.900000E-01   1.00800           0   0.00000     -0.301140E-02
     24448 MEMB     197      PMPG     C2       CTL1     0.170000       12.0110           0   0.00000     -0.301140E-02
     24449 MEMB     197      PMPG     HS       HAL1     0.900000E-01   1.00800           0   0.00000     -0.301140E-02
     24450 MEMB     197      PMPG     O21      OSL     -0.490000       15.9994           0   0.00000     -0.301140E-02
     24451 MEMB     197      PMPG     C21      CL       0.900000       12.0110           0   0.00000     -0.301140E-02
     24452 MEMB     197      PMPG     O22      OBL     -0.630000       15.9994           0   0.00000     -0.301140E-02
     24453 MEMB     197      PMPG     C22      CTL2    -0.220000       12.0110           0   0.00000     -0.301140E-02
     24454 MEMB     197      PMPG     H2R      HAL2     0.900000E-01   1.00800           0   0.00000     -0.301140E-02
     24455 MEMB     197      PMPG     H2S      HAL2     0.900000E-01   1.00800           0   0.00000     -0.301140E-02
     24456 MEMB     197      PMPG     C3       CTL2     0.800000E-01   12.0110           0   0.00000     -0.301140E-02
     24457 MEMB     197      PMPG     HX       HAL2     0.900000E-01   1.00800           0   0.00000     -0.301140E-02
     24458 MEMB     197      PMPG     HY       HAL2     0.900000E-01   1.00800           0   0.00000     -0.301140E-02
     24459 MEMB     197      PMPG     O31      OSL     -0.490000       15.9994           0   0.00000     -0.301140E-02
     24460 MEMB     197      PMPG     C31      CL       0.900000       12.0110           0   0.00000     -0.301140E-02
     24461 MEMB     197      PMPG     O32      OBL     -0.630000       15.9994           0   0.00000     -0.301140E-02
     24462 MEMB     197      PMPG     C32      CTL2    -0.220000       12.0110           0   0.00000     -0.301140E-02
     24463 MEMB     197      PMPG     H2X      HAL2     0.900000E-01   1.00800           0   0.00000     -0.301140E-02
     24464 MEMB     197      PMPG     H2Y      HAL2     0.900000E-01   1.00800           0   0.00000     -0.301140E-02
     24465 MEMB     197      PMPG     C23      CTL2    -0.180000       12.0110           0   0.00000     -0.301140E-02
     24466 MEMB     197      PMPG     H3R      HAL2     0.900000E-01   1.00800           0   0.00000     -0.301140E-02
     24467 MEMB     197      PMPG     H3S      HAL2     0.900000E-01   1.00800           0   0.00000     -0.301140E-02
     24468 MEMB     197      PMPG     C24      CTL2    -0.180000       12.0110           0   0.00000     -0.301140E-02
     24469 MEMB     197      PMPG     H4R      HAL2     0.900000E-01   1.00800           0   0.00000     -0.301140E-02
     24470 MEMB     197      PMPG     H4S      HAL2     0.900000E-01   1.00800           0   0.00000     -0.301140E-02
     24471 MEMB     197      PMPG     C25      CTL2    -0.180000       12.0110           0   0.00000     -0.301140E-02
     24472 MEMB     197      PMPG     H5R      HAL2     0.900000E-01   1.00800           0   0.00000     -0.301140E-02
     24473 MEMB     197      PMPG     H5S      HAL2     0.900000E-01   1.00800           0   0.00000     -0.301140E-02
     24474 MEMB     197      PMPG     C26      CTL2    -0.180000       12.0110           0   0.00000     -0.301140E-02
     24475 MEMB     197      PMPG     H6R      HAL2     0.900000E-01   1.00800           0   0.00000     -0.301140E-02
     24476 MEMB     197      PMPG     H6S      HAL2     0.900000E-01   1.00800           0   0.00000     -0.301140E-02
     24477 MEMB     197      PMPG     C27      CTL2    -0.180000       12.0110           0   0.00000     -0.301140E-02
     24478 MEMB     197      PMPG     H7R      HAL2     0.900000E-01   1.00800           0   0.00000     -0.301140E-02
     24479 MEMB     197      PMPG     H7S      HAL2     0.900000E-01   1.00800           0   0.00000     -0.301140E-02
     24480 MEMB     197      PMPG     C28      CTL2    -0.180000       12.0110           0   0.00000     -0.301140E-02
     24481 MEMB     197      PMPG     H8R      HAL2     0.900000E-01   1.00800           0   0.00000     -0.301140E-02
     24482 MEMB     197      PMPG     H8S      HAL2     0.900000E-01   1.00800           0   0.00000     -0.301140E-02
     24483 MEMB     197      PMPG     C29      CG3RC1  -0.900000E-01   12.0110           0   0.00000     -0.301140E-02
     24484 MEMB     197      PMPG     H9R      HGA1     0.900000E-01   1.00800           0   0.00000     -0.301140E-02
     24485 MEMB     197      PMPG     C217     CG3C31  -0.180000       12.0110           0   0.00000     -0.301140E-02
     24486 MEMB     197      PMPG     H17R     HGA2     0.900000E-01   1.00800           0   0.00000     -0.301140E-02
     24487 MEMB     197      PMPG     H17S     HGA2     0.900000E-01   1.00800           0   0.00000     -0.301140E-02
     24488 MEMB     197      PMPG     C210     CG3RC1  -0.900000E-01   12.0110           0   0.00000     -0.301140E-02
     24489 MEMB     197      PMPG     H10R     HGA1     0.900000E-01   1.00800           0   0.00000     -0.301140E-02
     24490 MEMB     197      PMPG     C211     CTL2    -0.180000       12.0110           0   0.00000     -0.301140E-02
     24491 MEMB     197      PMPG     H11R     HAL2     0.900000E-01   1.00800           0   0.00000     -0.301140E-02
     24492 MEMB     197      PMPG     H11S     HAL2     0.900000E-01   1.00800           0   0.00000     -0.301140E-02
     24493 MEMB     197      PMPG     C212     CTL2    -0.180000       12.0110           0   0.00000     -0.301140E-02
     24494 MEMB     197      PMPG     H12R     HAL2     0.900000E-01   1.00800           0   0.00000     -0.301140E-02
     24495 MEMB     197      PMPG     H12S     HAL2     0.900000E-01   1.00800           0   0.00000     -0.301140E-02
     24496 MEMB     197      PMPG     C213     CTL2    -0.180000       12.0110           0   0.00000     -0.301140E-02
     24497 MEMB     197      PMPG     H13R     HAL2     0.900000E-01   1.00800           0   0.00000     -0.301140E-02
     24498 MEMB     197      PMPG     H13S     HAL2     0.900000E-01   1.00800           0   0.00000     -0.301140E-02
     24499 MEMB     197      PMPG     C214     CTL2    -0.180000       12.0110           0   0.00000     -0.301140E-02
     24500 MEMB     197      PMPG     H14R     HAL2     0.900000E-01   1.00800           0   0.00000     -0.301140E-02
     24501 MEMB     197      PMPG     H14S     HAL2     0.900000E-01   1.00800           0   0.00000     -0.301140E-02
     24502 MEMB     197      PMPG     C215     CTL2    -0.180000       12.0110           0   0.00000     -0.301140E-02
     24503 MEMB     197      PMPG     H15R     HAL2     0.900000E-01   1.00800           0   0.00000     -0.301140E-02
     24504 MEMB     197      PMPG     H15S     HAL2     0.900000E-01   1.00800           0   0.00000     -0.301140E-02
     24505 MEMB     197      PMPG     C216     CTL3    -0.270000       12.0110           0   0.00000     -0.301140E-02
     24506 MEMB     197      PMPG     H16R     HAL3     0.900000E-01   1.00800           0   0.00000     -0.301140E-02
     24507 MEMB     197      PMPG     H16S     HAL3     0.900000E-01   1.00800           0   0.00000     -0.301140E-02
     24508 MEMB     197      PMPG     H16T     HAL3     0.900000E-01   1.00800           0   0.00000     -0.301140E-02
     24509 MEMB     197      PMPG     C33      CTL2    -0.180000       12.0110           0   0.00000     -0.301140E-02
     24510 MEMB     197      PMPG     H3X      HAL2     0.900000E-01   1.00800           0   0.00000     -0.301140E-02
     24511 MEMB     197      PMPG     H3Y      HAL2     0.900000E-01   1.00800           0   0.00000     -0.301140E-02
     24512 MEMB     197      PMPG     C34      CTL2    -0.180000       12.0110           0   0.00000     -0.301140E-02
     24513 MEMB     197      PMPG     H4X      HAL2     0.900000E-01   1.00800           0   0.00000     -0.301140E-02
     24514 MEMB     197      PMPG     H4Y      HAL2     0.900000E-01   1.00800           0   0.00000     -0.301140E-02
     24515 MEMB     197      PMPG     C35      CTL2    -0.180000       12.0110           0   0.00000     -0.301140E-02
     24516 MEMB     197      PMPG     H5X      HAL2     0.900000E-01   1.00800           0   0.00000     -0.301140E-02
     24517 MEMB     197      PMPG     H5Y      HAL2     0.900000E-01   1.00800           0   0.00000     -0.301140E-02
     24518 MEMB     197      PMPG     C36      CTL2    -0.180000       12.0110           0   0.00000     -0.301140E-02
     24519 MEMB     197      PMPG     H6X      HAL2     0.900000E-01   1.00800           0   0.00000     -0.301140E-02
     24520 MEMB     197      PMPG     H6Y      HAL2     0.900000E-01   1.00800           0   0.00000     -0.301140E-02
     24521 MEMB     197      PMPG     C37      CTL2    -0.180000       12.0110           0   0.00000     -0.301140E-02
     24522 MEMB     197      PMPG     H7X      HAL2     0.900000E-01   1.00800           0   0.00000     -0.301140E-02
     24523 MEMB     197      PMPG     H7Y      HAL2     0.900000E-01   1.00800           0   0.00000     -0.301140E-02
     24524 MEMB     197      PMPG     C38      CTL2    -0.180000       12.0110           0   0.00000     -0.301140E-02
     24525 MEMB     197      PMPG     H8X      HAL2     0.900000E-01   1.00800           0   0.00000     -0.301140E-02
     24526 MEMB     197      PMPG     H8Y      HAL2     0.900000E-01   1.00800           0   0.00000     -0.301140E-02
     24527 MEMB     197      PMPG     C39      CTL2    -0.180000       12.0110           0   0.00000     -0.301140E-02
     24528 MEMB     197      PMPG     H9X      HAL2     0.900000E-01   1.00800           0   0.00000     -0.301140E-02
     24529 MEMB     197      PMPG     H9Y      HAL2     0.900000E-01   1.00800           0   0.00000     -0.301140E-02
     24530 MEMB     197      PMPG     C310     CTL2    -0.180000       12.0110           0   0.00000     -0.301140E-02
     24531 MEMB     197      PMPG     H10X     HAL2     0.900000E-01   1.00800           0   0.00000     -0.301140E-02
     24532 MEMB     197      PMPG     H10Y     HAL2     0.900000E-01   1.00800           0   0.00000     -0.301140E-02
     24533 MEMB     197      PMPG     C311     CTL2    -0.180000       12.0110           0   0.00000     -0.301140E-02
     24534 MEMB     197      PMPG     H11X     HAL2     0.900000E-01   1.00800           0   0.00000     -0.301140E-02
     24535 MEMB     197      PMPG     H11Y     HAL2     0.900000E-01   1.00800           0   0.00000     -0.301140E-02
     24536 MEMB     197      PMPG     C312     CTL2    -0.180000       12.0110           0   0.00000     -0.301140E-02
     24537 MEMB     197      PMPG     H12X     HAL2     0.900000E-01   1.00800           0   0.00000     -0.301140E-02
     24538 MEMB     197      PMPG     H12Y     HAL2     0.900000E-01   1.00800           0   0.00000     -0.301140E-02
     24539 MEMB     197      PMPG     C313     CTL2    -0.180000       12.0110           0   0.00000     -0.301140E-02
     24540 MEMB     197      PMPG     H13X     HAL2     0.900000E-01   1.00800           0   0.00000     -0.301140E-02
     24541 MEMB     197      PMPG     H13Y     HAL2     0.900000E-01   1.00800           0   0.00000     -0.301140E-02
     24542 MEMB     197      PMPG     C314     CTL2    -0.180000       12.0110           0   0.00000     -0.301140E-02
     24543 MEMB     197      PMPG     H14X     HAL2     0.900000E-01   1.00800           0   0.00000     -0.301140E-02
     24544 MEMB     197      PMPG     H14Y     HAL2     0.900000E-01   1.00800           0   0.00000     -0.301140E-02
     24545 MEMB     197      PMPG     C315     CTL2    -0.180000       12.0110           0   0.00000     -0.301140E-02
     24546 MEMB     197      PMPG     H15X     HAL2     0.900000E-01   1.00800           0   0.00000     -0.301140E-02
     24547 MEMB     197      PMPG     H15Y     HAL2     0.900000E-01   1.00800           0   0.00000     -0.301140E-02
     24548 MEMB     197      PMPG     C316     CTL3    -0.270000       12.0110           0   0.00000     -0.301140E-02
     24549 MEMB     197      PMPG     H16X     HAL3     0.900000E-01   1.00800           0   0.00000     -0.301140E-02
     24550 MEMB     197      PMPG     H16Y     HAL3     0.900000E-01   1.00800           0   0.00000     -0.301140E-02
     24551 MEMB     197      PMPG     H16Z     HAL3     0.900000E-01   1.00800           0   0.00000     -0.301140E-02
     24552 MEMB     198      PMPE     N        NH3L    -0.300000       14.0070           0   0.00000     -0.301140E-02
     24553 MEMB     198      PMPE     HN1      HCL      0.330000       1.00800           0   0.00000     -0.301140E-02
     24554 MEMB     198      PMPE     HN2      HCL      0.330000       1.00800           0   0.00000     -0.301140E-02
     24555 MEMB     198      PMPE     HN3      HCL      0.330000       1.00800           0   0.00000     -0.301140E-02
     24556 MEMB     198      PMPE     C12      CTL2     0.130000       12.0110           0   0.00000     -0.301140E-02
     24557 MEMB     198      PMPE     H12A     HAL2     0.900000E-01   1.00800           0   0.00000     -0.301140E-02
     24558 MEMB     198      PMPE     H12B     HAL2     0.900000E-01   1.00800           0   0.00000     -0.301140E-02
     24559 MEMB     198      PMPE     C11      CTL2    -0.800000E-01   12.0110           0   0.00000     -0.301140E-02
     24560 MEMB     198      PMPE     H11A     HAL2     0.900000E-01   1.00800           0   0.00000     -0.301140E-02
     24561 MEMB     198      PMPE     H11B     HAL2     0.900000E-01   1.00800           0   0.00000     -0.301140E-02
     24562 MEMB     198      PMPE     P        PL        1.50000       30.9740           0   0.00000     -0.301140E-02
     24563 MEMB     198      PMPE     O13      O2L     -0.780000       15.9994           0   0.00000     -0.301140E-02
     24564 MEMB     198      PMPE     O14      O2L     -0.780000       15.9994           0   0.00000     -0.301140E-02
     24565 MEMB     198      PMPE     O11      OSLP    -0.570000       15.9994           0   0.00000     -0.301140E-02
     24566 MEMB     198      PMPE     O12      OSLP    -0.570000       15.9994           0   0.00000     -0.301140E-02
     24567 MEMB     198      PMPE     C1       CTL2    -0.800000E-01   12.0110           0   0.00000     -0.301140E-02
     24568 MEMB     198      PMPE     HA       HAL2     0.900000E-01   1.00800           0   0.00000     -0.301140E-02
     24569 MEMB     198      PMPE     HB       HAL2     0.900000E-01   1.00800           0   0.00000     -0.301140E-02
     24570 MEMB     198      PMPE     C2       CTL1     0.170000       12.0110           0   0.00000     -0.301140E-02
     24571 MEMB     198      PMPE     HS       HAL1     0.900000E-01   1.00800           0   0.00000     -0.301140E-02
     24572 MEMB     198      PMPE     O21      OSL     -0.490000       15.9994           0   0.00000     -0.301140E-02
     24573 MEMB     198      PMPE     C21      CL       0.900000       12.0110           0   0.00000     -0.301140E-02
     24574 MEMB     198      PMPE     O22      OBL     -0.630000       15.9994           0   0.00000     -0.301140E-02
     24575 MEMB     198      PMPE     C22      CTL2    -0.220000       12.0110           0   0.00000     -0.301140E-02
     24576 MEMB     198      PMPE     H2R      HAL2     0.900000E-01   1.00800           0   0.00000     -0.301140E-02
     24577 MEMB     198      PMPE     H2S      HAL2     0.900000E-01   1.00800           0   0.00000     -0.301140E-02
     24578 MEMB     198      PMPE     C3       CTL2     0.800000E-01   12.0110           0   0.00000     -0.301140E-02
     24579 MEMB     198      PMPE     HX       HAL2     0.900000E-01   1.00800           0   0.00000     -0.301140E-02
     24580 MEMB     198      PMPE     HY       HAL2     0.900000E-01   1.00800           0   0.00000     -0.301140E-02
     24581 MEMB     198      PMPE     O31      OSL     -0.490000       15.9994           0   0.00000     -0.301140E-02
     24582 MEMB     198      PMPE     C31      CL       0.900000       12.0110           0   0.00000     -0.301140E-02
     24583 MEMB     198      PMPE     O32      OBL     -0.630000       15.9994           0   0.00000     -0.301140E-02
     24584 MEMB     198      PMPE     C32      CTL2    -0.220000       12.0110           0   0.00000     -0.301140E-02
     24585 MEMB     198      PMPE     H2X      HAL2     0.900000E-01   1.00800           0   0.00000     -0.301140E-02
     24586 MEMB     198      PMPE     H2Y      HAL2     0.900000E-01   1.00800           0   0.00000     -0.301140E-02
     24587 MEMB     198      PMPE     C23      CTL2    -0.180000       12.0110           0   0.00000     -0.301140E-02
     24588 MEMB     198      PMPE     H3R      HAL2     0.900000E-01   1.00800           0   0.00000     -0.301140E-02
     24589 MEMB     198      PMPE     H3S      HAL2     0.900000E-01   1.00800           0   0.00000     -0.301140E-02
     24590 MEMB     198      PMPE     C24      CTL2    -0.180000       12.0110           0   0.00000     -0.301140E-02
     24591 MEMB     198      PMPE     H4R      HAL2     0.900000E-01   1.00800           0   0.00000     -0.301140E-02
     24592 MEMB     198      PMPE     H4S      HAL2     0.900000E-01   1.00800           0   0.00000     -0.301140E-02
     24593 MEMB     198      PMPE     C25      CTL2    -0.180000       12.0110           0   0.00000     -0.301140E-02
     24594 MEMB     198      PMPE     H5R      HAL2     0.900000E-01   1.00800           0   0.00000     -0.301140E-02
     24595 MEMB     198      PMPE     H5S      HAL2     0.900000E-01   1.00800           0   0.00000     -0.301140E-02
     24596 MEMB     198      PMPE     C26      CTL2    -0.180000       12.0110           0   0.00000     -0.301140E-02
     24597 MEMB     198      PMPE     H6R      HAL2     0.900000E-01   1.00800           0   0.00000     -0.301140E-02
     24598 MEMB     198      PMPE     H6S      HAL2     0.900000E-01   1.00800           0   0.00000     -0.301140E-02
     24599 MEMB     198      PMPE     C27      CTL2    -0.180000       12.0110           0   0.00000     -0.301140E-02
     24600 MEMB     198      PMPE     H7R      HAL2     0.900000E-01   1.00800           0   0.00000     -0.301140E-02
     24601 MEMB     198      PMPE     H7S      HAL2     0.900000E-01   1.00800           0   0.00000     -0.301140E-02
     24602 MEMB     198      PMPE     C28      CTL2    -0.180000       12.0110           0   0.00000     -0.301140E-02
     24603 MEMB     198      PMPE     H8R      HAL2     0.900000E-01   1.00800           0   0.00000     -0.301140E-02
     24604 MEMB     198      PMPE     H8S      HAL2     0.900000E-01   1.00800           0   0.00000     -0.301140E-02
     24605 MEMB     198      PMPE     C29      CG3RC1  -0.900000E-01   12.0110           0   0.00000     -0.301140E-02
     24606 MEMB     198      PMPE     H9R      HGA1     0.900000E-01   1.00800           0   0.00000     -0.301140E-02
     24607 MEMB     198      PMPE     C217     CG3C31  -0.180000       12.0110           0   0.00000     -0.301140E-02
     24608 MEMB     198      PMPE     H17R     HGA2     0.900000E-01   1.00800           0   0.00000     -0.301140E-02
     24609 MEMB     198      PMPE     H17S     HGA2     0.900000E-01   1.00800           0   0.00000     -0.301140E-02
     24610 MEMB     198      PMPE     C210     CG3RC1  -0.900000E-01   12.0110           0   0.00000     -0.301140E-02
     24611 MEMB     198      PMPE     H10R     HGA1     0.900000E-01   1.00800           0   0.00000     -0.301140E-02
     24612 MEMB     198      PMPE     C211     CTL2    -0.180000       12.0110           0   0.00000     -0.301140E-02
     24613 MEMB     198      PMPE     H11R     HAL2     0.900000E-01   1.00800           0   0.00000     -0.301140E-02
     24614 MEMB     198      PMPE     H11S     HAL2     0.900000E-01   1.00800           0   0.00000     -0.301140E-02
     24615 MEMB     198      PMPE     C212     CTL2    -0.180000       12.0110           0   0.00000     -0.301140E-02
     24616 MEMB     198      PMPE     H12R     HAL2     0.900000E-01   1.00800           0   0.00000     -0.301140E-02
     24617 MEMB     198      PMPE     H12S     HAL2     0.900000E-01   1.00800           0   0.00000     -0.301140E-02
     24618 MEMB     198      PMPE     C213     CTL2    -0.180000       12.0110           0   0.00000     -0.301140E-02
     24619 MEMB     198      PMPE     H13R     HAL2     0.900000E-01   1.00800           0   0.00000     -0.301140E-02
     24620 MEMB     198      PMPE     H13S     HAL2     0.900000E-01   1.00800           0   0.00000     -0.301140E-02
     24621 MEMB     198      PMPE     C214     CTL2    -0.180000       12.0110           0   0.00000     -0.301140E-02
     24622 MEMB     198      PMPE     H14R     HAL2     0.900000E-01   1.00800           0   0.00000     -0.301140E-02
     24623 MEMB     198      PMPE     H14S     HAL2     0.900000E-01   1.00800           0   0.00000     -0.301140E-02
     24624 MEMB     198      PMPE     C215     CTL2    -0.180000       12.0110           0   0.00000     -0.301140E-02
     24625 MEMB     198      PMPE     H15R     HAL2     0.900000E-01   1.00800           0   0.00000     -0.301140E-02
     24626 MEMB     198      PMPE     H15S     HAL2     0.900000E-01   1.00800           0   0.00000     -0.301140E-02
     24627 MEMB     198      PMPE     C216     CTL3    -0.270000       12.0110           0   0.00000     -0.301140E-02
     24628 MEMB     198      PMPE     H16R     HAL3     0.900000E-01   1.00800           0   0.00000     -0.301140E-02
     24629 MEMB     198      PMPE     H16S     HAL3     0.900000E-01   1.00800           0   0.00000     -0.301140E-02
     24630 MEMB     198      PMPE     H16T     HAL3     0.900000E-01   1.00800           0   0.00000     -0.301140E-02
     24631 MEMB     198      PMPE     C33      CTL2    -0.180000       12.0110           0   0.00000     -0.301140E-02
     24632 MEMB     198      PMPE     H3X      HAL2     0.900000E-01   1.00800           0   0.00000     -0.301140E-02
     24633 MEMB     198      PMPE     H3Y      HAL2     0.900000E-01   1.00800           0   0.00000     -0.301140E-02
     24634 MEMB     198      PMPE     C34      CTL2    -0.180000       12.0110           0   0.00000     -0.301140E-02
     24635 MEMB     198      PMPE     H4X      HAL2     0.900000E-01   1.00800           0   0.00000     -0.301140E-02
     24636 MEMB     198      PMPE     H4Y      HAL2     0.900000E-01   1.00800           0   0.00000     -0.301140E-02
     24637 MEMB     198      PMPE     C35      CTL2    -0.180000       12.0110           0   0.00000     -0.301140E-02
     24638 MEMB     198      PMPE     H5X      HAL2     0.900000E-01   1.00800           0   0.00000     -0.301140E-02
     24639 MEMB     198      PMPE     H5Y      HAL2     0.900000E-01   1.00800           0   0.00000     -0.301140E-02
     24640 MEMB     198      PMPE     C36      CTL2    -0.180000       12.0110           0   0.00000     -0.301140E-02
     24641 MEMB     198      PMPE     H6X      HAL2     0.900000E-01   1.00800           0   0.00000     -0.301140E-02
     24642 MEMB     198      PMPE     H6Y      HAL2     0.900000E-01   1.00800           0   0.00000     -0.301140E-02
     24643 MEMB     198      PMPE     C37      CTL2    -0.180000       12.0110           0   0.00000     -0.301140E-02
     24644 MEMB     198      PMPE     H7X      HAL2     0.900000E-01   1.00800           0   0.00000     -0.301140E-02
     24645 MEMB     198      PMPE     H7Y      HAL2     0.900000E-01   1.00800           0   0.00000     -0.301140E-02
     24646 MEMB     198      PMPE     C38      CTL2    -0.180000       12.0110           0   0.00000     -0.301140E-02
     24647 MEMB     198      PMPE     H8X      HAL2     0.900000E-01   1.00800           0   0.00000     -0.301140E-02
     24648 MEMB     198      PMPE     H8Y      HAL2     0.900000E-01   1.00800           0   0.00000     -0.301140E-02
     24649 MEMB     198      PMPE     C39      CTL2    -0.180000       12.0110           0   0.00000     -0.301140E-02
     24650 MEMB     198      PMPE     H9X      HAL2     0.900000E-01   1.00800           0   0.00000     -0.301140E-02
     24651 MEMB     198      PMPE     H9Y      HAL2     0.900000E-01   1.00800           0   0.00000     -0.301140E-02
     24652 MEMB     198      PMPE     C310     CTL2    -0.180000       12.0110           0   0.00000     -0.301140E-02
     24653 MEMB     198      PMPE     H10X     HAL2     0.900000E-01   1.00800           0   0.00000     -0.301140E-02
     24654 MEMB     198      PMPE     H10Y     HAL2     0.900000E-01   1.00800           0   0.00000     -0.301140E-02
     24655 MEMB     198      PMPE     C311     CTL2    -0.180000       12.0110           0   0.00000     -0.301140E-02
     24656 MEMB     198      PMPE     H11X     HAL2     0.900000E-01   1.00800           0   0.00000     -0.301140E-02
     24657 MEMB     198      PMPE     H11Y     HAL2     0.900000E-01   1.00800           0   0.00000     -0.301140E-02
     24658 MEMB     198      PMPE     C312     CTL2    -0.180000       12.0110           0   0.00000     -0.301140E-02
     24659 MEMB     198      PMPE     H12X     HAL2     0.900000E-01   1.00800           0   0.00000     -0.301140E-02
     24660 MEMB     198      PMPE     H12Y     HAL2     0.900000E-01   1.00800           0   0.00000     -0.301140E-02
     24661 MEMB     198      PMPE     C313     CTL2    -0.180000       12.0110           0   0.00000     -0.301140E-02
     24662 MEMB     198      PMPE     H13X     HAL2     0.900000E-01   1.00800           0   0.00000     -0.301140E-02
     24663 MEMB     198      PMPE     H13Y     HAL2     0.900000E-01   1.00800           0   0.00000     -0.301140E-02
     24664 MEMB     198      PMPE     C314     CTL2    -0.180000       12.0110           0   0.00000     -0.301140E-02
     24665 MEMB     198      PMPE     H14X     HAL2     0.900000E-01   1.00800           0   0.00000     -0.301140E-02
     24666 MEMB     198      PMPE     H14Y     HAL2     0.900000E-01   1.00800           0   0.00000     -0.301140E-02
     24667 MEMB     198      PMPE     C315     CTL2    -0.180000       12.0110           0   0.00000     -0.301140E-02
     24668 MEMB     198      PMPE     H15X     HAL2     0.900000E-01   1.00800           0   0.00000     -0.301140E-02
     24669 MEMB     198      PMPE     H15Y     HAL2     0.900000E-01   1.00800           0   0.00000     -0.301140E-02
     24670 MEMB     198      PMPE     C316     CTL3    -0.270000       12.0110           0   0.00000     -0.301140E-02
     24671 MEMB     198      PMPE     H16X     HAL3     0.900000E-01   1.00800           0   0.00000     -0.301140E-02
     24672 MEMB     198      PMPE     H16Y     HAL3     0.900000E-01   1.00800           0   0.00000     -0.301140E-02
     24673 MEMB     198      PMPE     H16Z     HAL3     0.900000E-01   1.00800           0   0.00000     -0.301140E-02
     24674 MEMB     199      PMPE     N        NH3L    -0.300000       14.0070           0   0.00000     -0.301140E-02
     24675 MEMB     199      PMPE     HN1      HCL      0.330000       1.00800           0   0.00000     -0.301140E-02
     24676 MEMB     199      PMPE     HN2      HCL      0.330000       1.00800           0   0.00000     -0.301140E-02
     24677 MEMB     199      PMPE     HN3      HCL      0.330000       1.00800           0   0.00000     -0.301140E-02
     24678 MEMB     199      PMPE     C12      CTL2     0.130000       12.0110           0   0.00000     -0.301140E-02
     24679 MEMB     199      PMPE     H12A     HAL2     0.900000E-01   1.00800           0   0.00000     -0.301140E-02
     24680 MEMB     199      PMPE     H12B     HAL2     0.900000E-01   1.00800           0   0.00000     -0.301140E-02
     24681 MEMB     199      PMPE     C11      CTL2    -0.800000E-01   12.0110           0   0.00000     -0.301140E-02
     24682 MEMB     199      PMPE     H11A     HAL2     0.900000E-01   1.00800           0   0.00000     -0.301140E-02
     24683 MEMB     199      PMPE     H11B     HAL2     0.900000E-01   1.00800           0   0.00000     -0.301140E-02
     24684 MEMB     199      PMPE     P        PL        1.50000       30.9740           0   0.00000     -0.301140E-02
     24685 MEMB     199      PMPE     O13      O2L     -0.780000       15.9994           0   0.00000     -0.301140E-02
     24686 MEMB     199      PMPE     O14      O2L     -0.780000       15.9994           0   0.00000     -0.301140E-02
     24687 MEMB     199      PMPE     O11      OSLP    -0.570000       15.9994           0   0.00000     -0.301140E-02
     24688 MEMB     199      PMPE     O12      OSLP    -0.570000       15.9994           0   0.00000     -0.301140E-02
     24689 MEMB     199      PMPE     C1       CTL2    -0.800000E-01   12.0110           0   0.00000     -0.301140E-02
     24690 MEMB     199      PMPE     HA       HAL2     0.900000E-01   1.00800           0   0.00000     -0.301140E-02
     24691 MEMB     199      PMPE     HB       HAL2     0.900000E-01   1.00800           0   0.00000     -0.301140E-02
     24692 MEMB     199      PMPE     C2       CTL1     0.170000       12.0110           0   0.00000     -0.301140E-02
     24693 MEMB     199      PMPE     HS       HAL1     0.900000E-01   1.00800           0   0.00000     -0.301140E-02
     24694 MEMB     199      PMPE     O21      OSL     -0.490000       15.9994           0   0.00000     -0.301140E-02
     24695 MEMB     199      PMPE     C21      CL       0.900000       12.0110           0   0.00000     -0.301140E-02
     24696 MEMB     199      PMPE     O22      OBL     -0.630000       15.9994           0   0.00000     -0.301140E-02
     24697 MEMB     199      PMPE     C22      CTL2    -0.220000       12.0110           0   0.00000     -0.301140E-02
     24698 MEMB     199      PMPE     H2R      HAL2     0.900000E-01   1.00800           0   0.00000     -0.301140E-02
     24699 MEMB     199      PMPE     H2S      HAL2     0.900000E-01   1.00800           0   0.00000     -0.301140E-02
     24700 MEMB     199      PMPE     C3       CTL2     0.800000E-01   12.0110           0   0.00000     -0.301140E-02
     24701 MEMB     199      PMPE     HX       HAL2     0.900000E-01   1.00800           0   0.00000     -0.301140E-02
     24702 MEMB     199      PMPE     HY       HAL2     0.900000E-01   1.00800           0   0.00000     -0.301140E-02
     24703 MEMB     199      PMPE     O31      OSL     -0.490000       15.9994           0   0.00000     -0.301140E-02
     24704 MEMB     199      PMPE     C31      CL       0.900000       12.0110           0   0.00000     -0.301140E-02
     24705 MEMB     199      PMPE     O32      OBL     -0.630000       15.9994           0   0.00000     -0.301140E-02
     24706 MEMB     199      PMPE     C32      CTL2    -0.220000       12.0110           0   0.00000     -0.301140E-02
     24707 MEMB     199      PMPE     H2X      HAL2     0.900000E-01   1.00800           0   0.00000     -0.301140E-02
     24708 MEMB     199      PMPE     H2Y      HAL2     0.900000E-01   1.00800           0   0.00000     -0.301140E-02
     24709 MEMB     199      PMPE     C23      CTL2    -0.180000       12.0110           0   0.00000     -0.301140E-02
     24710 MEMB     199      PMPE     H3R      HAL2     0.900000E-01   1.00800           0   0.00000     -0.301140E-02
     24711 MEMB     199      PMPE     H3S      HAL2     0.900000E-01   1.00800           0   0.00000     -0.301140E-02
     24712 MEMB     199      PMPE     C24      CTL2    -0.180000       12.0110           0   0.00000     -0.301140E-02
     24713 MEMB     199      PMPE     H4R      HAL2     0.900000E-01   1.00800           0   0.00000     -0.301140E-02
     24714 MEMB     199      PMPE     H4S      HAL2     0.900000E-01   1.00800           0   0.00000     -0.301140E-02
     24715 MEMB     199      PMPE     C25      CTL2    -0.180000       12.0110           0   0.00000     -0.301140E-02
     24716 MEMB     199      PMPE     H5R      HAL2     0.900000E-01   1.00800           0   0.00000     -0.301140E-02
     24717 MEMB     199      PMPE     H5S      HAL2     0.900000E-01   1.00800           0   0.00000     -0.301140E-02
     24718 MEMB     199      PMPE     C26      CTL2    -0.180000       12.0110           0   0.00000     -0.301140E-02
     24719 MEMB     199      PMPE     H6R      HAL2     0.900000E-01   1.00800           0   0.00000     -0.301140E-02
     24720 MEMB     199      PMPE     H6S      HAL2     0.900000E-01   1.00800           0   0.00000     -0.301140E-02
     24721 MEMB     199      PMPE     C27      CTL2    -0.180000       12.0110           0   0.00000     -0.301140E-02
     24722 MEMB     199      PMPE     H7R      HAL2     0.900000E-01   1.00800           0   0.00000     -0.301140E-02
     24723 MEMB     199      PMPE     H7S      HAL2     0.900000E-01   1.00800           0   0.00000     -0.301140E-02
     24724 MEMB     199      PMPE     C28      CTL2    -0.180000       12.0110           0   0.00000     -0.301140E-02
     24725 MEMB     199      PMPE     H8R      HAL2     0.900000E-01   1.00800           0   0.00000     -0.301140E-02
     24726 MEMB     199      PMPE     H8S      HAL2     0.900000E-01   1.00800           0   0.00000     -0.301140E-02
     24727 MEMB     199      PMPE     C29      CG3RC1  -0.900000E-01   12.0110           0   0.00000     -0.301140E-02
     24728 MEMB     199      PMPE     H9R      HGA1     0.900000E-01   1.00800           0   0.00000     -0.301140E-02
     24729 MEMB     199      PMPE     C217     CG3C31  -0.180000       12.0110           0   0.00000     -0.301140E-02
     24730 MEMB     199      PMPE     H17R     HGA2     0.900000E-01   1.00800           0   0.00000     -0.301140E-02
     24731 MEMB     199      PMPE     H17S     HGA2     0.900000E-01   1.00800           0   0.00000     -0.301140E-02
     24732 MEMB     199      PMPE     C210     CG3RC1  -0.900000E-01   12.0110           0   0.00000     -0.301140E-02
     24733 MEMB     199      PMPE     H10R     HGA1     0.900000E-01   1.00800           0   0.00000     -0.301140E-02
     24734 MEMB     199      PMPE     C211     CTL2    -0.180000       12.0110           0   0.00000     -0.301140E-02
     24735 MEMB     199      PMPE     H11R     HAL2     0.900000E-01   1.00800           0   0.00000     -0.301140E-02
     24736 MEMB     199      PMPE     H11S     HAL2     0.900000E-01   1.00800           0   0.00000     -0.301140E-02
     24737 MEMB     199      PMPE     C212     CTL2    -0.180000       12.0110           0   0.00000     -0.301140E-02
     24738 MEMB     199      PMPE     H12R     HAL2     0.900000E-01   1.00800           0   0.00000     -0.301140E-02
     24739 MEMB     199      PMPE     H12S     HAL2     0.900000E-01   1.00800           0   0.00000     -0.301140E-02
     24740 MEMB     199      PMPE     C213     CTL2    -0.180000       12.0110           0   0.00000     -0.301140E-02
     24741 MEMB     199      PMPE     H13R     HAL2     0.900000E-01   1.00800           0   0.00000     -0.301140E-02
     24742 MEMB     199      PMPE     H13S     HAL2     0.900000E-01   1.00800           0   0.00000     -0.301140E-02
     24743 MEMB     199      PMPE     C214     CTL2    -0.180000       12.0110           0   0.00000     -0.301140E-02
     24744 MEMB     199      PMPE     H14R     HAL2     0.900000E-01   1.00800           0   0.00000     -0.301140E-02
     24745 MEMB     199      PMPE     H14S     HAL2     0.900000E-01   1.00800           0   0.00000     -0.301140E-02
     24746 MEMB     199      PMPE     C215     CTL2    -0.180000       12.0110           0   0.00000     -0.301140E-02
     24747 MEMB     199      PMPE     H15R     HAL2     0.900000E-01   1.00800           0   0.00000     -0.301140E-02
     24748 MEMB     199      PMPE     H15S     HAL2     0.900000E-01   1.00800           0   0.00000     -0.301140E-02
     24749 MEMB     199      PMPE     C216     CTL3    -0.270000       12.0110           0   0.00000     -0.301140E-02
     24750 MEMB     199      PMPE     H16R     HAL3     0.900000E-01   1.00800           0   0.00000     -0.301140E-02
     24751 MEMB     199      PMPE     H16S     HAL3     0.900000E-01   1.00800           0   0.00000     -0.301140E-02
     24752 MEMB     199      PMPE     H16T     HAL3     0.900000E-01   1.00800           0   0.00000     -0.301140E-02
     24753 MEMB     199      PMPE     C33      CTL2    -0.180000       12.0110           0   0.00000     -0.301140E-02
     24754 MEMB     199      PMPE     H3X      HAL2     0.900000E-01   1.00800           0   0.00000     -0.301140E-02
     24755 MEMB     199      PMPE     H3Y      HAL2     0.900000E-01   1.00800           0   0.00000     -0.301140E-02
     24756 MEMB     199      PMPE     C34      CTL2    -0.180000       12.0110           0   0.00000     -0.301140E-02
     24757 MEMB     199      PMPE     H4X      HAL2     0.900000E-01   1.00800           0   0.00000     -0.301140E-02
     24758 MEMB     199      PMPE     H4Y      HAL2     0.900000E-01   1.00800           0   0.00000     -0.301140E-02
     24759 MEMB     199      PMPE     C35      CTL2    -0.180000       12.0110           0   0.00000     -0.301140E-02
     24760 MEMB     199      PMPE     H5X      HAL2     0.900000E-01   1.00800           0   0.00000     -0.301140E-02
     24761 MEMB     199      PMPE     H5Y      HAL2     0.900000E-01   1.00800           0   0.00000     -0.301140E-02
     24762 MEMB     199      PMPE     C36      CTL2    -0.180000       12.0110           0   0.00000     -0.301140E-02
     24763 MEMB     199      PMPE     H6X      HAL2     0.900000E-01   1.00800           0   0.00000     -0.301140E-02
     24764 MEMB     199      PMPE     H6Y      HAL2     0.900000E-01   1.00800           0   0.00000     -0.301140E-02
     24765 MEMB     199      PMPE     C37      CTL2    -0.180000       12.0110           0   0.00000     -0.301140E-02
     24766 MEMB     199      PMPE     H7X      HAL2     0.900000E-01   1.00800           0   0.00000     -0.301140E-02
     24767 MEMB     199      PMPE     H7Y      HAL2     0.900000E-01   1.00800           0   0.00000     -0.301140E-02
     24768 MEMB     199      PMPE     C38      CTL2    -0.180000       12.0110           0   0.00000     -0.301140E-02
     24769 MEMB     199      PMPE     H8X      HAL2     0.900000E-01   1.00800           0   0.00000     -0.301140E-02
     24770 MEMB     199      PMPE     H8Y      HAL2     0.900000E-01   1.00800           0   0.00000     -0.301140E-02
     24771 MEMB     199      PMPE     C39      CTL2    -0.180000       12.0110           0   0.00000     -0.301140E-02
     24772 MEMB     199      PMPE     H9X      HAL2     0.900000E-01   1.00800           0   0.00000     -0.301140E-02
     24773 MEMB     199      PMPE     H9Y      HAL2     0.900000E-01   1.00800           0   0.00000     -0.301140E-02
     24774 MEMB     199      PMPE     C310     CTL2    -0.180000       12.0110           0   0.00000     -0.301140E-02
     24775 MEMB     199      PMPE     H10X     HAL2     0.900000E-01   1.00800           0   0.00000     -0.301140E-02
     24776 MEMB     199      PMPE     H10Y     HAL2     0.900000E-01   1.00800           0   0.00000     -0.301140E-02
     24777 MEMB     199      PMPE     C311     CTL2    -0.180000       12.0110           0   0.00000     -0.301140E-02
     24778 MEMB     199      PMPE     H11X     HAL2     0.900000E-01   1.00800           0   0.00000     -0.301140E-02
     24779 MEMB     199      PMPE     H11Y     HAL2     0.900000E-01   1.00800           0   0.00000     -0.301140E-02
     24780 MEMB     199      PMPE     C312     CTL2    -0.180000       12.0110           0   0.00000     -0.301140E-02
     24781 MEMB     199      PMPE     H12X     HAL2     0.900000E-01   1.00800           0   0.00000     -0.301140E-02
     24782 MEMB     199      PMPE     H12Y     HAL2     0.900000E-01   1.00800           0   0.00000     -0.301140E-02
     24783 MEMB     199      PMPE     C313     CTL2    -0.180000       12.0110           0   0.00000     -0.301140E-02
     24784 MEMB     199      PMPE     H13X     HAL2     0.900000E-01   1.00800           0   0.00000     -0.301140E-02
     24785 MEMB     199      PMPE     H13Y     HAL2     0.900000E-01   1.00800           0   0.00000     -0.301140E-02
     24786 MEMB     199      PMPE     C314     CTL2    -0.180000       12.0110           0   0.00000     -0.301140E-02
     24787 MEMB     199      PMPE     H14X     HAL2     0.900000E-01   1.00800           0   0.00000     -0.301140E-02
     24788 MEMB     199      PMPE     H14Y     HAL2     0.900000E-01   1.00800           0   0.00000     -0.301140E-02
     24789 MEMB     199      PMPE     C315     CTL2    -0.180000       12.0110           0   0.00000     -0.301140E-02
     24790 MEMB     199      PMPE     H15X     HAL2     0.900000E-01   1.00800           0   0.00000     -0.301140E-02
     24791 MEMB     199      PMPE     H15Y     HAL2     0.900000E-01   1.00800           0   0.00000     -0.301140E-02
     24792 MEMB     199      PMPE     C316     CTL3    -0.270000       12.0110           0   0.00000     -0.301140E-02
     24793 MEMB     199      PMPE     H16X     HAL3     0.900000E-01   1.00800           0   0.00000     -0.301140E-02
     24794 MEMB     199      PMPE     H16Y     HAL3     0.900000E-01   1.00800           0   0.00000     -0.301140E-02
     24795 MEMB     199      PMPE     H16Z     HAL3     0.900000E-01   1.00800           0   0.00000     -0.301140E-02
     24796 MEMB     200      PYPG     C13      CTL2     0.500000E-01   12.0110           0   0.00000     -0.301140E-02
     24797 MEMB     200      PYPG     H13A     HAL2     0.900000E-01   1.00800           0   0.00000     -0.301140E-02
     24798 MEMB     200      PYPG     H13B     HAL2     0.900000E-01   1.00800           0   0.00000     -0.301140E-02
     24799 MEMB     200      PYPG     OC3      OHL     -0.660000       15.9994           0   0.00000     -0.301140E-02
     24800 MEMB     200      PYPG     HO3      HOL      0.430000       1.00800           0   0.00000     -0.301140E-02
     24801 MEMB     200      PYPG     C12      CTL1     0.140000       12.0110           0   0.00000     -0.301140E-02
     24802 MEMB     200      PYPG     H12A     HAL1     0.900000E-01   1.00800           0   0.00000     -0.301140E-02
     24803 MEMB     200      PYPG     OC2      OHL     -0.660000       15.9994           0   0.00000     -0.301140E-02
     24804 MEMB     200      PYPG     HO2      HOL      0.430000       1.00800           0   0.00000     -0.301140E-02
     24805 MEMB     200      PYPG     C11      CTL2    -0.800000E-01   12.0110           0   0.00000     -0.301140E-02
     24806 MEMB     200      PYPG     H11A     HAL2     0.900000E-01   1.00800           0   0.00000     -0.301140E-02
     24807 MEMB     200      PYPG     H11B     HAL2     0.900000E-01   1.00800           0   0.00000     -0.301140E-02
     24808 MEMB     200      PYPG     P        PL        1.50000       30.9740           0   0.00000     -0.301140E-02
     24809 MEMB     200      PYPG     O13      O2L     -0.780000       15.9994           0   0.00000     -0.301140E-02
     24810 MEMB     200      PYPG     O14      O2L     -0.780000       15.9994           0   0.00000     -0.301140E-02
     24811 MEMB     200      PYPG     O11      OSLP    -0.570000       15.9994           0   0.00000     -0.301140E-02
     24812 MEMB     200      PYPG     O12      OSLP    -0.570000       15.9994           0   0.00000     -0.301140E-02
     24813 MEMB     200      PYPG     C1       CTL2    -0.800000E-01   12.0110           0   0.00000     -0.301140E-02
     24814 MEMB     200      PYPG     HA       HAL2     0.900000E-01   1.00800           0   0.00000     -0.301140E-02
     24815 MEMB     200      PYPG     HB       HAL2     0.900000E-01   1.00800           0   0.00000     -0.301140E-02
     24816 MEMB     200      PYPG     C2       CTL1     0.170000       12.0110           0   0.00000     -0.301140E-02
     24817 MEMB     200      PYPG     HS       HAL1     0.900000E-01   1.00800           0   0.00000     -0.301140E-02
     24818 MEMB     200      PYPG     O21      OSL     -0.490000       15.9994           0   0.00000     -0.301140E-02
     24819 MEMB     200      PYPG     C21      CL       0.900000       12.0110           0   0.00000     -0.301140E-02
     24820 MEMB     200      PYPG     O22      OBL     -0.630000       15.9994           0   0.00000     -0.301140E-02
     24821 MEMB     200      PYPG     C22      CTL2    -0.220000       12.0110           0   0.00000     -0.301140E-02
     24822 MEMB     200      PYPG     H2R      HAL2     0.900000E-01   1.00800           0   0.00000     -0.301140E-02
     24823 MEMB     200      PYPG     H2S      HAL2     0.900000E-01   1.00800           0   0.00000     -0.301140E-02
     24824 MEMB     200      PYPG     C3       CTL2     0.800000E-01   12.0110           0   0.00000     -0.301140E-02
     24825 MEMB     200      PYPG     HX       HAL2     0.900000E-01   1.00800           0   0.00000     -0.301140E-02
     24826 MEMB     200      PYPG     HY       HAL2     0.900000E-01   1.00800           0   0.00000     -0.301140E-02
     24827 MEMB     200      PYPG     O31      OSL     -0.490000       15.9994           0   0.00000     -0.301140E-02
     24828 MEMB     200      PYPG     C31      CL       0.900000       12.0110           0   0.00000     -0.301140E-02
     24829 MEMB     200      PYPG     O32      OBL     -0.630000       15.9994           0   0.00000     -0.301140E-02
     24830 MEMB     200      PYPG     C32      CTL2    -0.220000       12.0110           0   0.00000     -0.301140E-02
     24831 MEMB     200      PYPG     H2X      HAL2     0.900000E-01   1.00800           0   0.00000     -0.301140E-02
     24832 MEMB     200      PYPG     H2Y      HAL2     0.900000E-01   1.00800           0   0.00000     -0.301140E-02
     24833 MEMB     200      PYPG     C23      CTL2    -0.180000       12.0110           0   0.00000     -0.301140E-02
     24834 MEMB     200      PYPG     H3R      HAL2     0.900000E-01   1.00800           0   0.00000     -0.301140E-02
     24835 MEMB     200      PYPG     H3S      HAL2     0.900000E-01   1.00800           0   0.00000     -0.301140E-02
     24836 MEMB     200      PYPG     C24      CTL2    -0.180000       12.0110           0   0.00000     -0.301140E-02
     24837 MEMB     200      PYPG     H4R      HAL2     0.900000E-01   1.00800           0   0.00000     -0.301140E-02
     24838 MEMB     200      PYPG     H4S      HAL2     0.900000E-01   1.00800           0   0.00000     -0.301140E-02
     24839 MEMB     200      PYPG     C25      CTL2    -0.180000       12.0110           0   0.00000     -0.301140E-02
     24840 MEMB     200      PYPG     H5R      HAL2     0.900000E-01   1.00800           0   0.00000     -0.301140E-02
     24841 MEMB     200      PYPG     H5S      HAL2     0.900000E-01   1.00800           0   0.00000     -0.301140E-02
     24842 MEMB     200      PYPG     C26      CTL2    -0.180000       12.0110           0   0.00000     -0.301140E-02
     24843 MEMB     200      PYPG     H6R      HAL2     0.900000E-01   1.00800           0   0.00000     -0.301140E-02
     24844 MEMB     200      PYPG     H6S      HAL2     0.900000E-01   1.00800           0   0.00000     -0.301140E-02
     24845 MEMB     200      PYPG     C27      CTL2    -0.180000       12.0110           0   0.00000     -0.301140E-02
     24846 MEMB     200      PYPG     H7R      HAL2     0.900000E-01   1.00800           0   0.00000     -0.301140E-02
     24847 MEMB     200      PYPG     H7S      HAL2     0.900000E-01   1.00800           0   0.00000     -0.301140E-02
     24848 MEMB     200      PYPG     C28      CTL2    -0.180000       12.0110           0   0.00000     -0.301140E-02
     24849 MEMB     200      PYPG     H8R      HAL2     0.900000E-01   1.00800           0   0.00000     -0.301140E-02
     24850 MEMB     200      PYPG     H8S      HAL2     0.900000E-01   1.00800           0   0.00000     -0.301140E-02
     24851 MEMB     200      PYPG     C29      CEL1    -0.150000       12.0110           0   0.00000     -0.301140E-02
     24852 MEMB     200      PYPG     H9R      HEL1     0.150000       1.00800           0   0.00000     -0.301140E-02
     24853 MEMB     200      PYPG     C210     CEL1    -0.150000       12.0110           0   0.00000     -0.301140E-02
     24854 MEMB     200      PYPG     H10R     HEL1     0.150000       1.00800           0   0.00000     -0.301140E-02
     24855 MEMB     200      PYPG     C211     CTL2    -0.180000       12.0110           0   0.00000     -0.301140E-02
     24856 MEMB     200      PYPG     H11R     HAL2     0.900000E-01   1.00800           0   0.00000     -0.301140E-02
     24857 MEMB     200      PYPG     H11S     HAL2     0.900000E-01   1.00800           0   0.00000     -0.301140E-02
     24858 MEMB     200      PYPG     C212     CTL2    -0.180000       12.0110           0   0.00000     -0.301140E-02
     24859 MEMB     200      PYPG     H12R     HAL2     0.900000E-01   1.00800           0   0.00000     -0.301140E-02
     24860 MEMB     200      PYPG     H12S     HAL2     0.900000E-01   1.00800           0   0.00000     -0.301140E-02
     24861 MEMB     200      PYPG     C213     CTL2    -0.180000       12.0110           0   0.00000     -0.301140E-02
     24862 MEMB     200      PYPG     H13R     HAL2     0.900000E-01   1.00800           0   0.00000     -0.301140E-02
     24863 MEMB     200      PYPG     H13S     HAL2     0.900000E-01   1.00800           0   0.00000     -0.301140E-02
     24864 MEMB     200      PYPG     C214     CTL2    -0.180000       12.0110           0   0.00000     -0.301140E-02
     24865 MEMB     200      PYPG     H14R     HAL2     0.900000E-01   1.00800           0   0.00000     -0.301140E-02
     24866 MEMB     200      PYPG     H14S     HAL2     0.900000E-01   1.00800           0   0.00000     -0.301140E-02
     24867 MEMB     200      PYPG     C215     CTL2    -0.180000       12.0110           0   0.00000     -0.301140E-02
     24868 MEMB     200      PYPG     H15R     HAL2     0.900000E-01   1.00800           0   0.00000     -0.301140E-02
     24869 MEMB     200      PYPG     H15S     HAL2     0.900000E-01   1.00800           0   0.00000     -0.301140E-02
     24870 MEMB     200      PYPG     C216     CTL3    -0.270000       12.0110           0   0.00000     -0.301140E-02
     24871 MEMB     200      PYPG     H16R     HAL3     0.900000E-01   1.00800           0   0.00000     -0.301140E-02
     24872 MEMB     200      PYPG     H16S     HAL3     0.900000E-01   1.00800           0   0.00000     -0.301140E-02
     24873 MEMB     200      PYPG     H16T     HAL3     0.900000E-01   1.00800           0   0.00000     -0.301140E-02
     24874 MEMB     200      PYPG     C33      CTL2    -0.180000       12.0110           0   0.00000     -0.301140E-02
     24875 MEMB     200      PYPG     H3X      HAL2     0.900000E-01   1.00800           0   0.00000     -0.301140E-02
     24876 MEMB     200      PYPG     H3Y      HAL2     0.900000E-01   1.00800           0   0.00000     -0.301140E-02
     24877 MEMB     200      PYPG     C34      CTL2    -0.180000       12.0110           0   0.00000     -0.301140E-02
     24878 MEMB     200      PYPG     H4X      HAL2     0.900000E-01   1.00800           0   0.00000     -0.301140E-02
     24879 MEMB     200      PYPG     H4Y      HAL2     0.900000E-01   1.00800           0   0.00000     -0.301140E-02
     24880 MEMB     200      PYPG     C35      CTL2    -0.180000       12.0110           0   0.00000     -0.301140E-02
     24881 MEMB     200      PYPG     H5X      HAL2     0.900000E-01   1.00800           0   0.00000     -0.301140E-02
     24882 MEMB     200      PYPG     H5Y      HAL2     0.900000E-01   1.00800           0   0.00000     -0.301140E-02
     24883 MEMB     200      PYPG     C36      CTL2    -0.180000       12.0110           0   0.00000     -0.301140E-02
     24884 MEMB     200      PYPG     H6X      HAL2     0.900000E-01   1.00800           0   0.00000     -0.301140E-02
     24885 MEMB     200      PYPG     H6Y      HAL2     0.900000E-01   1.00800           0   0.00000     -0.301140E-02
     24886 MEMB     200      PYPG     C37      CTL2    -0.180000       12.0110           0   0.00000     -0.301140E-02
     24887 MEMB     200      PYPG     H7X      HAL2     0.900000E-01   1.00800           0   0.00000     -0.301140E-02
     24888 MEMB     200      PYPG     H7Y      HAL2     0.900000E-01   1.00800           0   0.00000     -0.301140E-02
     24889 MEMB     200      PYPG     C38      CTL2    -0.180000       12.0110           0   0.00000     -0.301140E-02
     24890 MEMB     200      PYPG     H8X      HAL2     0.900000E-01   1.00800           0   0.00000     -0.301140E-02
     24891 MEMB     200      PYPG     H8Y      HAL2     0.900000E-01   1.00800           0   0.00000     -0.301140E-02
     24892 MEMB     200      PYPG     C39      CTL2    -0.180000       12.0110           0   0.00000     -0.301140E-02
     24893 MEMB     200      PYPG     H9X      HAL2     0.900000E-01   1.00800           0   0.00000     -0.301140E-02
     24894 MEMB     200      PYPG     H9Y      HAL2     0.900000E-01   1.00800           0   0.00000     -0.301140E-02
     24895 MEMB     200      PYPG     C310     CTL2    -0.180000       12.0110           0   0.00000     -0.301140E-02
     24896 MEMB     200      PYPG     H10X     HAL2     0.900000E-01   1.00800           0   0.00000     -0.301140E-02
     24897 MEMB     200      PYPG     H10Y     HAL2     0.900000E-01   1.00800           0   0.00000     -0.301140E-02
     24898 MEMB     200      PYPG     C311     CTL2    -0.180000       12.0110           0   0.00000     -0.301140E-02
     24899 MEMB     200      PYPG     H11X     HAL2     0.900000E-01   1.00800           0   0.00000     -0.301140E-02
     24900 MEMB     200      PYPG     H11Y     HAL2     0.900000E-01   1.00800           0   0.00000     -0.301140E-02
     24901 MEMB     200      PYPG     C312     CTL2    -0.180000       12.0110           0   0.00000     -0.301140E-02
     24902 MEMB     200      PYPG     H12X     HAL2     0.900000E-01   1.00800           0   0.00000     -0.301140E-02
     24903 MEMB     200      PYPG     H12Y     HAL2     0.900000E-01   1.00800           0   0.00000     -0.301140E-02
     24904 MEMB     200      PYPG     C313     CTL2    -0.180000       12.0110           0   0.00000     -0.301140E-02
     24905 MEMB     200      PYPG     H13X     HAL2     0.900000E-01   1.00800           0   0.00000     -0.301140E-02
     24906 MEMB     200      PYPG     H13Y     HAL2     0.900000E-01   1.00800           0   0.00000     -0.301140E-02
     24907 MEMB     200      PYPG     C314     CTL2    -0.180000       12.0110           0   0.00000     -0.301140E-02
     24908 MEMB     200      PYPG     H14X     HAL2     0.900000E-01   1.00800           0   0.00000     -0.301140E-02
     24909 MEMB     200      PYPG     H14Y     HAL2     0.900000E-01   1.00800           0   0.00000     -0.301140E-02
     24910 MEMB     200      PYPG     C315     CTL2    -0.180000       12.0110           0   0.00000     -0.301140E-02
     24911 MEMB     200      PYPG     H15X     HAL2     0.900000E-01   1.00800           0   0.00000     -0.301140E-02
     24912 MEMB     200      PYPG     H15Y     HAL2     0.900000E-01   1.00800           0   0.00000     -0.301140E-02
     24913 MEMB     200      PYPG     C316     CTL3    -0.270000       12.0110           0   0.00000     -0.301140E-02
     24914 MEMB     200      PYPG     H16X     HAL3     0.900000E-01   1.00800           0   0.00000     -0.301140E-02
     24915 MEMB     200      PYPG     H16Y     HAL3     0.900000E-01   1.00800           0   0.00000     -0.301140E-02
     24916 MEMB     200      PYPG     H16Z     HAL3     0.900000E-01   1.00800           0   0.00000     -0.301140E-02

     24852 !NBOND: bonds
         1         2         1         3         1         4         1         5
         5         6         5         7         5         8         8         9
         8        10         8        15        15        11        11        14
        11        12        11        13        16        17        16        18
        16        19        16        14        19        20        19        27
        19        21        27        28        27        29        27        30
        21        22        22        24        22        23        24        25
        24        26        24        36        36        37        36        38
        36        39        39        40        39        41        39        42
        42        43        42        44        42        45        45        46
        45        47        45        48        48        49        48        50
        48        51        51        52        51        53        51        54
        54        55        54        59        54        56        59        60
        59        61        59        56        61        62        61        63
        61        64        64        65        64        66        64        67
        67        68        67        69        67        70        70        71
        70        72        70        73        73        74        73        75
        73        76        76        77        76        78        76        79
        56        57        56        58        30        31        31        33
        31        32        33        34        33        35        33        80
        80        81        80        82        80        83        83        84
        83        85        83        86        86        87        86        88
        86        89        89        90        89        91        89        92
        92        93        92        94        92        95        95        96
        95        97        95        98        98        99        98       100
        98       101       101       102       101       103       101       104
       104       105       104       106       104       107       107       108
       107       109       107       110       110       111       110       112
       110       113       113       114       113       115       113       116
       116       117       116       118       116       119       120       121
       120       122       120       123       120       124       124       125
       124       126       124       127       127       128       127       129
       127       134       134       130       130       133       130       131
       130       132       135       136       135       137       135       138
       135       133       138       139       138       146       138       140
       146       147       146       148       146       149       140       141
       141       143       141       142       143       144       143       145
       143       155       155       156       155       157       155       158
       158       159       158       160       158       161       161       162
       161       163       161       164       164       165       164       166
       164       167       167       168       167       169       167       170
       170       171       170       172       170       173       173       174
       173       178       173       175       178       179       178       180
       178       175       180       181       180       182       180       183
       183       184       183       185       183       186       186       187
       186       188       186       189       189       190       189       191
       189       192       192       193       192       194       192       195
       195       196       195       197       195       198       175       176
       175       177       149       150       150       152       150       151
       152       153       152       154       152       199       199       200
       199       201       199       202       202       203       202       204
       202       205       205       206       205       207       205       208
       208       209       208       210       208       211       211       212
       211       213       211       214       214       215       214       216
       214       217       217       218       217       219       217       220
       220       221       220       222       220       223       223       224
       223       225       223       226       226       227       226       228
       226       229       229       230       229       231       229       232
       232       233       232       234       232       235       235       236
       235       237       235       238       238       239       238       240
       238       241       246       245       245       242       242       243
       242       244       242       247       250       249       249       247
       247       248       247       251       251       252       251       253
       251       258       258       254       254       257       254       255
       254       256       259       260       259       261       259       262
       259       257       262       263       262       270       262       264
       270       271       270       272       270       273       264       265
       265       267       265       266       267       268       267       269
       267       279       279       280       279       281       279       282
       282       283       282       284       282       285       285       286
       285       287       285       288       288       289       288       290
       288       291       291       292       291       293       291       294
       294       295       294       296       294       297       297       298
       297       299       299       300       299       301       301       302
       301       303       301       304       304       305       304       306
       304       307       307       308       307       309       307       310
       310       311       310       312       310       313       313       314
       313       315       313       316       316       317       316       318
       316       319       273       274       274       276       274       275
       276       277       276       278       276       320       320       321
       320       322       320       323       323       324       323       325
       323       326       326       327       326       328       326       329
       329       330       329       331       329       332       332       333
       332       334       332       335       335       336       335       337
       335       338       338       339       338       340       338       341
       341       342       341       343       341       344       344       345
       344       346       344       347       347       348       347       349
       347       350       350       351       350       352       350       353
       353       354       353       355       353       356       356       357
       356       358       356       359       359       360       359       361
       359       362       367       366       366       363       363       364
       363       365       363       368       371       370       370       368
       368       369       368       372       372       373       372       374
       372       379       379       375       375       378       375       376
       375       377       380       381       380       382       380       383
       380       378       383       384       383       391       383       385
       391       392       391       393       391       394       385       386
       386       388       386       387       388       389       388       390
       388       400       400       401       400       402       400       403
       403       404       403       405       403       406       406       407
       406       408       406       409       409       410       409       411
       409       412       412       413       412       414       412       415
       415       416       415       417       415       418       418       419
       418       423       418       420       423       424       423       425
       423       420       425       426       425       427       425       428
       428       429       428       430       428       431       431       432
       431       433       431       434       434       435       434       436
       434       437       437       438       437       439       437       440
       440       441       440       442       440       443       420       421
       420       422       394       395       395       397       395       396
       397       398       397       399       397       444       444       445
       444       446       444       447       447       448       447       449
       447       450       450       451       450       452       450       453
       453       454       453       455       453       456       456       457
       456       458       456       459       459       460       459       461
       459       462       462       463       462       464       462       465
       465       466       465       467       465       468       468       469
       468       470       468       471       471       472       471       473
       471       474       474       475       474       476       474       477
       477       478       477       479       477       480       480       481
       480       482       480       483       483       484       483       485
       483       486       487       488       487       489       487       490
       487       491       491       492       491       493       491       494
       494       495       494       496       494       501       501       497
       497       500       497       498       497       499       502       503
       502       504       502       505       502       500       505       506
       505       513       505       507       513       514       513       515
       513       516       507       508       508       510       508       509
       510       511       510       512       510       522       522       523
       522       524       522       525       525       526       525       527
       525       528       528       529       528       530       528       531
       531       532       531       533       531       534       534       535
       534       536       534       537       537       538       537       539
       537       540       540       541       540       545       540       542
       545       546       545       547       545       542       547       548
       547       549       547       550       550       551       550       552
       550       553       553       554       553       555       553       556
       556       557       556       558       556       559       559       560
       559       561       559       562       562       563       562       564
       562       565       542       543       542       544       516       517
       517       519       517       518       519       520       519       521
       519       566       566       567       566       568       566       569
       569       570       569       571       569       572       572       573
       572       574       572       575       575       576       575       577
       575       578       578       579       578       580       578       581
       581       582       581       583       581       584       584       585
       584       586       584       587       587       588       587       589
       587       590       590       591       590       592       590       593
       593       594       593       595       593       596       596       597
       596       598       596       599       599       600       599       601
       599       602       602       603       602       604       602       605
       606       607       606       608       606       609       606       610
       610       611       610       612       610       613       613       614
       613       615       613       620       620       616       616       619
       616       617       616       618       621       622       621       623
       621       624       621       619       624       625       624       632
       624       626       632       633       632       634       632       635
       626       627       627       629       627       628       629       630
       629       631       629       641       641       642       641       643
       641       644       644       645       644       646       644       647
       647       648       647       649       647       650       650       651
       650       652       650       653       653       654       653       655
       653       656       656       657       656       658       656       659
       659       660       659       664       659       661       664       665
       664       666       664       661       666       667       666       668
       666       669       669       670       669       671       669       672
       672       673       672       674       672       675       675       676
       675       677       675       678       678       679       678       680
       678       681       681       682       681       683       681       684
       661       662       661       663       635       636       636       638
       636       637       638       639       638       640       638       685
       685       686       685       687       685       688       688       689
       688       690       688       691       691       692       691       693
       691       694       694       695       694       696       694       697
       697       698       697       699       697       700       700       701
       700       702       700       703       703       704       703       705
       703       706       706       707       706       708       706       709
       709       710       709       711       709       712       712       713
       712       714       712       715       715       716       715       717
       715       718       718       719       718       720       718       721
       721       722       721       723       721       724       724       725
       724       726       724       727       732       731       731       728
       728       729       728       730       728       733       736       735
       735       733       733       734       733       737       737       738
       737       739       737       744       744       740       740       743
       740       741       740       742       745       746       745       747
       745       748       745       743       748       749       748       756
       748       750       756       757       756       758       756       759
       750       751       751       753       751       752       753       754
       753       755       753       765       765       766       765       767
       765       768       768       769       768       770       768       771
       771       772       771       773       771       774       774       775
       774       776       774       777       777       778       777       779
       777       780       780       781       780       782       780       783
       783       784       783       788       783       785       788       789
       788       790       788       785       790       791       790       792
       790       793       793       794       793       795       793       796
       796       797       796       798       796       799       799       800
       799       801       799       802       802       803       802       804
       802       805       805       806       805       807       805       808
       785       786       785       787       759       760       760       762
       760       761       762       763       762       764       762       809
       809       810       809       811       809       812       812       813
       812       814       812       815       815       816       815       817
       815       818       818       819       818       820       818       821
       821       822       821       823       821       824       824       825
       824       826       824       827       827       828       827       829
       827       830       830       831       830       832       830       833
       833       834       833       835       833       836       836       837
       836       838       836       839       839       840       839       841
       839       842       842       843       842       844       842       845
       845       846       845       847       845       848       848       849
       848       850       848       851       856       855       855       852
       852       853       852       854       852       857       860       859
       859       857       857       858       857       861       861       862
       861       863       861       868       868       864       864       867
       864       865       864       866       869       870       869       871
       869       872       869       867       872       873       872       880
       872       874       880       881       880       882       880       883
       874       875       875       877       875       876       877       878
       877       879       877       889       889       890       889       891
       889       892       892       893       892       894       892       895
       895       896       895       897       895       898       898       899
       898       900       898       901       901       902       901       903
       901       904       904       905       904       906       904       907
       907       908       907       909       909       910       909       911
       911       912       911       913       911       914       914       915
       914       916       914       917       917       918       917       919
       917       920       920       921       920       922       920       923
       923       924       923       925       923       926       926       927
       926       928       926       929       883       884       884       886
       884       885       886       887       886       888       886       930
       930       931       930       932       930       933       933       934
       933       935       933       936       936       937       936       938
       936       939       939       940       939       941       939       942
       942       943       942       944       942       945       945       946
       945       947       945       948       948       949       948       950
       948       951       951       952       951       953       951       954
       954       955       954       956       954       957       957       958
       957       959       957       960       960       961       960       962
       960       963       963       964       963       965       963       966
       966       967       966       968       966       969       969       970
       969       971       969       972       973       974       973       975
       973       976       973       977       977       978       977       979
       977       980       980       981       980       982       980       987
       987       983       983       986       983       984       983       985
       988       989       988       990       988       991       988       986
       991       992       991       999       991       993       999      1000
       999      1001       999      1002       993       994       994       996
       994       995       996       997       996       998       996      1008
      1008      1009      1008      1010      1008      1011      1011      1012
      1011      1013      1011      1014      1014      1015      1014      1016
      1014      1017      1017      1018      1017      1019      1017      1020
      1020      1021      1020      1022      1020      1023      1023      1024
      1023      1025      1023      1026      1026      1027      1026      1031
      1026      1028      1031      1032      1031      1033      1031      1028
      1033      1034      1033      1035      1033      1036      1036      1037
      1036      1038      1036      1039      1039      1040      1039      1041
      1039      1042      1042      1043      1042      1044      1042      1045
      1045      1046      1045      1047      1045      1048      1048      1049
      1048      1050      1048      1051      1028      1029      1028      1030
      1002      1003      1003      1005      1003      1004      1005      1006
      1005      1007      1005      1052      1052      1053      1052      1054
      1052      1055      1055      1056      1055      1057      1055      1058
      1058      1059      1058      1060      1058      1061      1061      1062
      1061      1063      1061      1064      1064      1065      1064      1066
      1064      1067      1067      1068      1067      1069      1067      1070
      1070      1071      1070      1072      1070      1073      1073      1074
      1073      1075      1073      1076      1076      1077      1076      1078
      1076      1079      1079      1080      1079      1081      1079      1082
      1082      1083      1082      1084      1082      1085      1085      1086
      1085      1087      1085      1088      1088      1089      1088      1090
      1088      1091      1091      1092      1091      1093      1091      1094
      1095      1096      1095      1097      1095      1098      1095      1099
      1099      1100      1099      1101      1099      1102      1102      1103
      1102      1104      1102      1109      1109      1105      1105      1108
      1105      1106      1105      1107      1110      1111      1110      1112
      1110      1113      1110      1108      1113      1114      1113      1121
      1113      1115      1121      1122      1121      1123      1121      1124
      1115      1116      1116      1118      1116      1117      1118      1119
      1118      1120      1118      1130      1130      1131      1130      1132
      1130      1133      1133      1134      1133      1135      1133      1136
      1136      1137      1136      1138      1136      1139      1139      1140
      1139      1141      1139      1142      1142      1143      1142      1144
      1142      1145      1145      1146      1145      1147      1145      1148
      1148      1149      1148      1150      1150      1151      1150      1152
      1152      1153      1152      1154      1152      1155      1155      1156
      1155      1157      1155      1158      1158      1159      1158      1160
      1158      1161      1161      1162      1161      1163      1161      1164
      1164      1165      1164      1166      1164      1167      1167      1168
      1167      1169      1167      1170      1170      1171      1170      1172
      1170      1173      1173      1174      1173      1175      1173      1176
      1124      1125      1125      1127      1125      1126      1127      1128
      1127      1129      1127      1177      1177      1178      1177      1179
      1177      1180      1180      1181      1180      1182      1180      1183
      1183      1184      1183      1185      1183      1186      1186      1187
      1186      1188      1186      1189      1189      1190      1189      1191
      1189      1192      1192      1193      1192      1194      1192      1195
      1195      1196      1195      1197      1195      1198      1198      1199
      1198      1200      1198      1201      1201      1202      1201      1203
      1201      1204      1204      1205      1204      1206      1204      1207
      1207      1208      1207      1209      1207      1210      1210      1211
      1210      1212      1210      1213      1213      1214      1213      1215
      1213      1216      1216      1217      1216      1218      1216      1219
      1220      1221      1220      1222      1220      1223      1220      1224
      1224      1225      1224      1226      1224      1227      1227      1228
      1227      1229      1227      1234      1234      1230      1230      1233
      1230      1231      1230      1232      1235      1236      1235      1237
      1235      1238      1235      1233      1238      1239      1238      1246
      1238      1240      1246      1247      1246      1248      1246      1249
      1240      1241      1241      1243      1241      1242      1243      1244
      1243      1245      1243      1255      1255      1256      1255      1257
      1255      1258      1258      1259      1258      1260      1258      1261
      1261      1262      1261      1263      1261      1264      1264      1265
      1264      1266      1264      1267      1267      1268      1267      1269
      1267      1270      1270      1271      1270      1272      1270      1273
      1273      1274      1273      1278      1273      1275      1278      1279
      1278      1280      1278      1275      1280      1281      1280      1282
      1280      1283      1283      1284      1283      1285      1283      1286
      1286      1287      1286      1288      1286      1289      1289      1290
      1289      1291      1289      1292      1292      1293      1292      1294
      1292      1295      1295      1296      1295      1297      1295      1298
      1275      1276      1275      1277      1249      1250      1250      1252
      1250      1251      1252      1253      1252      1254      1252      1299
      1299      1300      1299      1301      1299      1302      1302      1303
      1302      1304      1302      1305      1305      1306      1305      1307
      1305      1308      1308      1309      1308      1310      1308      1311
      1311      1312      1311      1313      1311      1314      1314      1315
      1314      1316      1314      1317      1317      1318      1317      1319
      1317      1320      1320      1321      1320      1322      1320      1323
      1323      1324      1323      1325      1323      1326      1326      1327
      1326      1328      1326      1329      1329      1330      1329      1331
      1329      1332      1332      1333      1332      1334      1332      1335
      1335      1336      1335      1337      1335      1338      1338      1339
      1338      1340      1338      1341      1342      1343      1342      1344
      1342      1345      1342      1346      1346      1347      1346      1348
      1346      1349      1349      1350      1349      1351      1349      1356
      1356      1352      1352      1355      1352      1353      1352      1354
      1357      1358      1357      1359      1357      1360      1357      1355
      1360      1361      1360      1368      1360      1362      1368      1369
      1368      1370      1368      1371      1362      1363      1363      1365
      1363      1364      1365      1366      1365      1367      1365      1377
      1377      1378      1377      1379      1377      1380      1380      1381
      1380      1382      1380      1383      1383      1384      1383      1385
      1383      1386      1386      1387      1386      1388      1386      1389
      1389      1390      1389      1391      1389      1392      1392      1393
      1392      1394      1392      1395      1395      1396      1395      1400
      1395      1397      1400      1401      1400      1402      1400      1397
      1402      1403      1402      1404      1402      1405      1405      1406
      1405      1407      1405      1408      1408      1409      1408      1410
      1408      1411      1411      1412      1411      1413      1411      1414
      1414      1415      1414      1416      1414      1417      1417      1418
      1417      1419      1417      1420      1397      1398      1397      1399
      1371      1372      1372      1374      1372      1373      1374      1375
      1374      1376      1374      1421      1421      1422      1421      1423
      1421      1424      1424      1425      1424      1426      1424      1427
      1427      1428      1427      1429      1427      1430      1430      1431
      1430      1432      1430      1433      1433      1434      1433      1435
      1433      1436      1436      1437      1436      1438      1436      1439
      1439      1440      1439      1441      1439      1442      1442      1443
      1442      1444      1442      1445      1445      1446      1445      1447
      1445      1448      1448      1449      1448      1450      1448      1451
      1451      1452      1451      1453      1451      1454      1454      1455
      1454      1456      1454      1457      1457      1458      1457      1459
      1457      1460      1460      1461      1460      1462      1460      1463
      1464      1465      1464      1466      1464      1467      1464      1468
      1468      1469      1468      1470      1468      1471      1471      1472
      1471      1473      1471      1478      1478      1474      1474      1477
      1474      1475      1474      1476      1479      1480      1479      1481
      1479      1482      1479      1477      1482      1483      1482      1490
      1482      1484      1490      1491      1490      1492      1490      1493
      1484      1485      1485      1487      1485      1486      1487      1488
      1487      1489      1487      1499      1499      1500      1499      1501
      1499      1502      1502      1503      1502      1504      1502      1505
      1505      1506      1505      1507      1505      1508      1508      1509
      1508      1510      1508      1511      1511      1512      1511      1513
      1511      1514      1514      1515      1514      1516      1514      1517
      1517      1518      1517      1519      1519      1520      1519      1521
      1521      1522      1521      1523      1521      1524      1524      1525
      1524      1526      1524      1527      1527      1528      1527      1529
      1527      1530      1530      1531      1530      1532      1530      1533
      1533      1534      1533      1535      1533      1536      1536      1537
      1536      1538      1536      1539      1539      1540      1539      1541
      1539      1542      1542      1543      1542      1544      1542      1545
      1493      1494      1494      1496      1494      1495      1496      1497
      1496      1498      1496      1546      1546      1547      1546      1548
      1546      1549      1549      1550      1549      1551      1549      1552
      1552      1553      1552      1554      1552      1555      1555      1556
      1555      1557      1555      1558      1558      1559      1558      1560
      1558      1561      1561      1562      1561      1563      1561      1564
      1564      1565      1564      1566      1564      1567      1567      1568
      1567      1569      1567      1570      1570      1571      1570      1572
      1570      1573      1573      1574      1573      1575      1573      1576
      1576      1577      1576      1578      1576      1579      1579      1580
      1579      1581      1579      1582      1582      1583      1582      1584
      1582      1585      1585      1586      1585      1587      1585      1588
      1589      1590      1589      1591      1589      1592      1589      1593
      1593      1594      1593      1595      1593      1596      1596      1597
      1596      1598      1596      1603      1603      1599      1599      1602
      1599      1600      1599      1601      1604      1605      1604      1606
      1604      1607      1604      1602      1607      1608      1607      1615
      1607      1609      1615      1616      1615      1617      1615      1618
      1609      1610      1610      1612      1610      1611      1612      1613
      1612      1614      1612      1624      1624      1625      1624      1626
      1624      1627      1627      1628      1627      1629      1627      1630
      1630      1631      1630      1632      1630      1633      1633      1634
      1633      1635      1633      1636      1636      1637      1636      1638
      1636      1639      1639      1640      1639      1641      1639      1642
      1642      1643      1642      1647      1642      1644      1647      1648
      1647      1649      1647      1644      1649      1650      1649      1651
      1649      1652      1652      1653      1652      1654      1652      1655
      1655      1656      1655      1657      1655      1658      1658      1659
      1658      1660      1658      1661      1661      1662      1661      1663
      1661      1664      1664      1665      1664      1666      1664      1667
      1644      1645      1644      1646      1618      1619      1619      1621
      1619      1620      1621      1622      1621      1623      1621      1668
      1668      1669      1668      1670      1668      1671      1671      1672
      1671      1673      1671      1674      1674      1675      1674      1676
      1674      1677      1677      1678      1677      1679      1677      1680
      1680      1681      1680      1682      1680      1683      1683      1684
      1683      1685      1683      1686      1686      1687      1686      1688
      1686      1689      1689      1690      1689      1691      1689      1692
      1692      1693      1692      1694      1692      1695      1695      1696
      1695      1697      1695      1698      1698      1699      1698      1700
      1698      1701      1701      1702      1701      1703      1701      1704
      1704      1705      1704      1706      1704      1707      1707      1708
      1707      1709      1707      1710      1711      1712      1711      1713
      1711      1714      1711      1715      1715      1716      1715      1717
      1715      1718      1718      1719      1718      1720      1718      1725
      1725      1721      1721      1724      1721      1722      1721      1723
      1726      1727      1726      1728      1726      1729      1726      1724
      1729      1730      1729      1737      1729      1731      1737      1738
      1737      1739      1737      1740      1731      1732      1732      1734
      1732      1733      1734      1735      1734      1736      1734      1746
      1746      1747      1746      1748      1746      1749      1749      1750
      1749      1751      1749      1752      1752      1753      1752      1754
      1752      1755      1755      1756      1755      1757      1755      1758
      1758      1759      1758      1760      1758      1761      1761      1762
      1761      1763      1761      1764      1764      1765      1764      1766
      1766      1767      1766      1768      1768      1769      1768      1770
      1768      1771      1771      1772      1771      1773      1771      1774
      1774      1775      1774      1776      1774      1777      1777      1778
      1777      1779      1777      1780      1780      1781      1780      1782
      1780      1783      1783      1784      1783      1785      1783      1786
      1740      1741      1741      1743      1741      1742      1743      1744
      1743      1745      1743      1787      1787      1788      1787      1789
      1787      1790      1790      1791      1790      1792      1790      1793
      1793      1794      1793      1795      1793      1796      1796      1797
      1796      1798      1796      1799      1799      1800      1799      1801
      1799      1802      1802      1803      1802      1804      1802      1805
      1805      1806      1805      1807      1807      1808      1807      1809
      1809      1810      1809      1811      1809      1812      1812      1813
      1812      1814      1812      1815      1815      1816      1815      1817
      1815      1818      1818      1819      1818      1820      1818      1821
      1821      1822      1821      1823      1821      1824      1824      1825
      1824      1826      1824      1827      1827      1828      1827      1829
      1827      1830      1830      1831      1830      1832      1830      1833
      1838      1837      1837      1834      1834      1835      1834      1836
      1834      1839      1842      1841      1841      1839      1839      1840
      1839      1843      1843      1844      1843      1845      1843      1850
      1850      1846      1846      1849      1846      1847      1846      1848
      1851      1852      1851      1853      1851      1854      1851      1849
      1854      1855      1854      1862      1854      1856      1862      1863
      1862      1864      1862      1865      1856      1857      1857      1859
      1857      1858      1859      1860      1859      1861      1859      1871
      1871      1872      1871      1873      1871      1874      1874      1875
      1874      1876      1874      1877      1877      1878      1877      1879
      1877      1880      1880      1881      1880      1882      1880      1883
      1883      1884      1883      1885      1883      1886      1886      1887
      1886      1888      1886      1889      1889      1890      1889      1891
      1891      1892      1891      1893      1893      1894      1893      1895
      1893      1896      1896      1897      1896      1898      1896      1899
      1899      1900      1899      1901      1899      1902      1902      1903
      1902      1904      1902      1905      1905      1906      1905      1907
      1905      1908      1908      1909      1908      1910      1908      1911
      1865      1866      1866      1868      1866      1867      1868      1869
      1868      1870      1868      1912      1912      1913      1912      1914
      1912      1915      1915      1916      1915      1917      1915      1918
      1918      1919      1918      1920      1918      1921      1921      1922
      1921      1923      1921      1924      1924      1925      1924      1926
      1924      1927      1927      1928      1927      1929      1927      1930
      1930      1931      1930      1932      1930      1933      1933      1934
      1933      1935      1933      1936      1936      1937      1936      1938
      1936      1939      1939      1940      1939      1941      1939      1942
      1942      1943      1942      1944      1942      1945      1945      1946
      1945      1947      1945      1948      1948      1949      1948      1950
      1948      1951      1951      1952      1951      1953      1951      1954
      1955      1956      1955      1957      1955      1958      1955      1959
      1959      1960      1959      1961      1959      1962      1962      1963
      1962      1964      1962      1969      1969      1965      1965      1968
      1965      1966      1965      1967      1970      1971      1970      1972
      1970      1973      1970      1968      1973      1974      1973      1981
      1973      1975      1981      1982      1981      1983      1981      1984
      1975      1976      1976      1978      1976      1977      1978      1979
      1978      1980      1978      1990      1990      1991      1990      1992
      1990      1993      1993      1994      1993      1995      1993      1996
      1996      1997      1996      1998      1996      1999      1999      2000
      1999      2001      1999      2002      2002      2003      2002      2004
      2002      2005      2005      2006      2005      2007      2005      2008
      2008      2009      2008      2013      2008      2010      2013      2014
      2013      2015      2013      2010      2015      2016      2015      2017
      2015      2018      2018      2019      2018      2020      2018      2021
      2021      2022      2021      2023      2021      2024      2024      2025
      2024      2026      2024      2027      2027      2028      2027      2029
      2027      2030      2030      2031      2030      2032      2030      2033
      2010      2011      2010      2012      1984      1985      1985      1987
      1985      1986      1987      1988      1987      1989      1987      2034
      2034      2035      2034      2036      2034      2037      2037      2038
      2037      2039      2037      2040      2040      2041      2040      2042
      2040      2043      2043      2044      2043      2045      2043      2046
      2046      2047      2046      2048      2046      2049      2049      2050
      2049      2051      2049      2052      2052      2053      2052      2054
      2052      2055      2055      2056      2055      2057      2055      2058
      2058      2059      2058      2060      2058      2061      2061      2062
      2061      2063      2061      2064      2064      2065      2064      2066
      2064      2067      2067      2068      2067      2069      2067      2070
      2070      2071      2070      2072      2070      2073      2073      2074
      2073      2075      2073      2076      2077      2078      2077      2079
      2077      2080      2077      2081      2081      2082      2081      2083
      2081      2084      2084      2085      2084      2086      2084      2091
      2091      2087      2087      2090      2087      2088      2087      2089
      2092      2093      2092      2094      2092      2095      2092      2090
      2095      2096      2095      2103      2095      2097      2103      2104
      2103      2105      2103      2106      2097      2098      2098      2100
      2098      2099      2100      2101      2100      2102      2100      2112
      2112      2113      2112      2114      2112      2115      2115      2116
      2115      2117      2115      2118      2118      2119      2118      2120
      2118      2121      2121      2122      2121      2123      2121      2124
      2124      2125      2124      2126      2124      2127      2127      2128
      2127      2129      2127      2130      2130      2131      2130      2135
      2130      2132      2135      2136      2135      2137      2135      2132
      2137      2138      2137      2139      2137      2140      2140      2141
      2140      2142      2140      2143      2143      2144      2143      2145
      2143      2146      2146      2147      2146      2148      2146      2149
      2149      2150      2149      2151      2149      2152      2152      2153
      2152      2154      2152      2155      2132      2133      2132      2134
      2106      2107      2107      2109      2107      2108      2109      2110
      2109      2111      2109      2156      2156      2157      2156      2158
      2156      2159      2159      2160      2159      2161      2159      2162
      2162      2163      2162      2164      2162      2165      2165      2166
      2165      2167      2165      2168      2168      2169      2168      2170
      2168      2171      2171      2172      2171      2173      2171      2174
      2174      2175      2174      2176      2174      2177      2177      2178
      2177      2179      2177      2180      2180      2181      2180      2182
      2180      2183      2183      2184      2183      2185      2183      2186
      2186      2187      2186      2188      2186      2189      2189      2190
      2189      2191      2189      2192      2192      2193      2192      2194
      2192      2195      2196      2197      2196      2198      2196      2199
      2196      2200      2200      2201      2200      2202      2200      2203
      2203      2204      2203      2205      2203      2210      2210      2206
      2206      2209      2206      2207      2206      2208      2211      2212
      2211      2213      2211      2214      2211      2209      2214      2215
      2214      2222      2214      2216      2222      2223      2222      2224
      2222      2225      2216      2217      2217      2219      2217      2218
      2219      2220      2219      2221      2219      2231      2231      2232
      2231      2233      2231      2234      2234      2235      2234      2236
      2234      2237      2237      2238      2237      2239      2237      2240
      2240      2241      2240      2242      2240      2243      2243      2244
      2243      2245      2243      2246      2246      2247      2246      2248
      2246      2249      2249      2250      2249      2251      2251      2252
      2251      2253      2253      2254      2253      2255      2253      2256
      2256      2257      2256      2258      2256      2259      2259      2260
      2259      2261      2259      2262      2262      2263      2262      2264
      2262      2265      2265      2266      2265      2267      2265      2268
      2268      2269      2268      2270      2268      2271      2225      2226
      2226      2228      2226      2227      2228      2229      2228      2230
      2228      2272      2272      2273      2272      2274      2272      2275
      2275      2276      2275      2277      2275      2278      2278      2279
      2278      2280      2278      2281      2281      2282      2281      2283
      2281      2284      2284      2285      2284      2286      2284      2287
      2287      2288      2287      2289      2287      2290      2290      2291
      2290      2292      2292      2293      2292      2294      2294      2295
      2294      2296      2294      2297      2297      2298      2297      2299
      2297      2300      2300      2301      2300      2302      2300      2303
      2303      2304      2303      2305      2303      2306      2306      2307
      2306      2308      2306      2309      2309      2310      2309      2311
      2309      2312      2312      2313      2312      2314      2312      2315
      2315      2316      2315      2317      2315      2318      2319      2320
      2319      2321      2319      2322      2319      2323      2323      2324
      2323      2325      2323      2326      2326      2327      2326      2328
      2326      2333      2333      2329      2329      2332      2329      2330
      2329      2331      2334      2335      2334      2336      2334      2337
      2334      2332      2337      2338      2337      2345      2337      2339
      2345      2346      2345      2347      2345      2348      2339      2340
      2340      2342      2340      2341      2342      2343      2342      2344
      2342      2354      2354      2355      2354      2356      2354      2357
      2357      2358      2357      2359      2357      2360      2360      2361
      2360      2362      2360      2363      2363      2364      2363      2365
      2363      2366      2366      2367      2366      2368      2366      2369
      2369      2370      2369      2371      2369      2372      2372      2373
      2372      2374      2374      2375      2374      2376      2376      2377
      2376      2378      2376      2379      2379      2380      2379      2381
      2379      2382      2382      2383      2382      2384      2382      2385
      2385      2386      2385      2387      2385      2388      2388      2389
      2388      2390      2388      2391      2391      2392      2391      2393
      2391      2394      2394      2395      2394      2396      2394      2397
      2397      2398      2397      2399      2397      2400      2348      2349
      2349      2351      2349      2350      2351      2352      2351      2353
      2351      2401      2401      2402      2401      2403      2401      2404
      2404      2405      2404      2406      2404      2407      2407      2408
      2407      2409      2407      2410      2410      2411      2410      2412
      2410      2413      2413      2414      2413      2415      2413      2416
      2416      2417      2416      2418      2416      2419      2419      2420
      2419      2421      2419      2422      2422      2423      2422      2424
      2422      2425      2425      2426      2425      2427      2425      2428
      2428      2429      2428      2430      2428      2431      2431      2432
      2431      2433      2431      2434      2434      2435      2434      2436
      2434      2437      2437      2438      2437      2439      2437      2440
      2440      2441      2440      2442      2440      2443      2444      2445
      2444      2446      2444      2447      2444      2448      2448      2449
      2448      2450      2448      2451      2451      2452      2451      2453
      2451      2458      2458      2454      2454      2457      2454      2455
      2454      2456      2459      2460      2459      2461      2459      2462
      2459      2457      2462      2463      2462      2470      2462      2464
      2470      2471      2470      2472      2470      2473      2464      2465
      2465      2467      2465      2466      2467      2468      2467      2469
      2467      2479      2479      2480      2479      2481      2479      2482
      2482      2483      2482      2484      2482      2485      2485      2486
      2485      2487      2485      2488      2488      2489      2488      2490
      2488      2491      2491      2492      2491      2493      2491      2494
      2494      2495      2494      2496      2494      2497      2497      2498
      2497      2499      2499      2500      2499      2501      2501      2502
      2501      2503      2501      2504      2504      2505      2504      2506
      2504      2507      2507      2508      2507      2509      2507      2510
      2510      2511      2510      2512      2510      2513      2513      2514
      2513      2515      2513      2516      2516      2517      2516      2518
      2516      2519      2473      2474      2474      2476      2474      2475
      2476      2477      2476      2478      2476      2520      2520      2521
      2520      2522      2520      2523      2523      2524      2523      2525
      2523      2526      2526      2527      2526      2528      2526      2529
      2529      2530      2529      2531      2529      2532      2532      2533
      2532      2534      2532      2535      2535      2536      2535      2537
      2535      2538      2538      2539      2538      2540      2540      2541
      2540      2542      2542      2543      2542      2544      2542      2545
      2545      2546      2545      2547      2545      2548      2548      2549
      2548      2550      2548      2551      2551      2552      2551      2553
      2551      2554      2554      2555      2554      2556      2554      2557
      2557      2558      2557      2559      2557      2560      2560      2561
      2560      2562      2560      2563      2563      2564      2563      2565
      2563      2566      2567      2568      2567      2569      2567      2570
      2567      2571      2571      2572      2571      2573      2571      2574
      2574      2575      2574      2576      2574      2581      2581      2577
      2577      2580      2577      2578      2577      2579      2582      2583
      2582      2584      2582      2585      2582      2580      2585      2586
      2585      2593      2585      2587      2593      2594      2593      2595
      2593      2596      2587      2588      2588      2590      2588      2589
      2590      2591      2590      2592      2590      2602      2602      2603
      2602      2604      2602      2605      2605      2606      2605      2607
      2605      2608      2608      2609      2608      2610      2608      2611
      2611      2612      2611      2613      2611      2614      2614      2615
      2614      2616      2614      2617      2617      2618      2617      2619
      2617      2620      2620      2621      2620      2625      2620      2622
      2625      2626      2625      2627      2625      2622      2627      2628
      2627      2629      2627      2630      2630      2631      2630      2632
      2630      2633      2633      2634      2633      2635      2633      2636
      2636      2637      2636      2638      2636      2639      2639      2640
      2639      2641      2639      2642      2642      2643      2642      2644
      2642      2645      2622      2623      2622      2624      2596      2597
      2597      2599      2597      2598      2599      2600      2599      2601
      2599      2646      2646      2647      2646      2648      2646      2649
      2649      2650      2649      2651      2649      2652      2652      2653
      2652      2654      2652      2655      2655      2656      2655      2657
      2655      2658      2658      2659      2658      2660      2658      2661
      2661      2662      2661      2663      2661      2664      2664      2665
      2664      2666      2664      2667      2667      2668      2667      2669
      2667      2670      2670      2671      2670      2672      2670      2673
      2673      2674      2673      2675      2673      2676      2676      2677
      2676      2678      2676      2679      2679      2680      2679      2681
      2679      2682      2682      2683      2682      2684      2682      2685
      2685      2686      2685      2687      2685      2688      2693      2692
      2692      2689      2689      2690      2689      2691      2689      2694
      2697      2696      2696      2694      2694      2695      2694      2698
      2698      2699      2698      2700      2698      2705      2705      2701
      2701      2704      2701      2702      2701      2703      2706      2707
      2706      2708      2706      2709      2706      2704      2709      2710
      2709      2717      2709      2711      2717      2718      2717      2719
      2717      2720      2711      2712      2712      2714      2712      2713
      2714      2715      2714      2716      2714      2726      2726      2727
      2726      2728      2726      2729      2729      2730      2729      2731
      2729      2732      2732      2733      2732      2734      2732      2735
      2735      2736      2735      2737      2735      2738      2738      2739
      2738      2740      2738      2741      2741      2742      2741      2743
      2741      2744      2744      2745      2744      2746      2746      2747
      2746      2748      2748      2749      2748      2750      2748      2751
      2751      2752      2751      2753      2751      2754      2754      2755
      2754      2756      2754      2757      2757      2758      2757      2759
      2757      2760      2760      2761      2760      2762      2760      2763
      2763      2764      2763      2765      2763      2766      2720      2721
      2721      2723      2721      2722      2723      2724      2723      2725
      2723      2767      2767      2768      2767      2769      2767      2770
      2770      2771      2770      2772      2770      2773      2773      2774
      2773      2775      2773      2776      2776      2777      2776      2778
      2776      2779      2779      2780      2779      2781      2779      2782
      2782      2783      2782      2784      2782      2785      2785      2786
      2785      2787      2785      2788      2788      2789      2788      2790
      2788      2791      2791      2792      2791      2793      2791      2794
      2794      2795      2794      2796      2794      2797      2797      2798
      2797      2799      2797      2800      2800      2801      2800      2802
      2800      2803      2803      2804      2803      2805      2803      2806
      2806      2807      2806      2808      2806      2809      2810      2811
      2810      2812      2810      2813      2810      2814      2814      2815
      2814      2816      2814      2817      2817      2818      2817      2819
      2817      2824      2824      2820      2820      2823      2820      2821
      2820      2822      2825      2826      2825      2827      2825      2828
      2825      2823      2828      2829      2828      2836      2828      2830
      2836      2837      2836      2838      2836      2839      2830      2831
      2831      2833      2831      2832      2833      2834      2833      2835
      2833      2845      2845      2846      2845      2847      2845      2848
      2848      2849      2848      2850      2848      2851      2851      2852
      2851      2853      2851      2854      2854      2855      2854      2856
      2854      2857      2857      2858      2857      2859      2857      2860
      2860      2861      2860      2862      2860      2863      2863      2864
      2863      2868      2863      2865      2868      2869      2868      2870
      2868      2865      2870      2871      2870      2872      2870      2873
      2873      2874      2873      2875      2873      2876      2876      2877
      2876      2878      2876      2879      2879      2880      2879      2881
      2879      2882      2882      2883      2882      2884      2882      2885
      2885      2886      2885      2887      2885      2888      2865      2866
      2865      2867      2839      2840      2840      2842      2840      2841
      2842      2843      2842      2844      2842      2889      2889      2890
      2889      2891      2889      2892      2892      2893      2892      2894
      2892      2895      2895      2896      2895      2897      2895      2898
      2898      2899      2898      2900      2898      2901      2901      2902
      2901      2903      2901      2904      2904      2905      2904      2906
      2904      2907      2907      2908      2907      2909      2907      2910
      2910      2911      2910      2912      2910      2913      2913      2914
      2913      2915      2913      2916      2916      2917      2916      2918
      2916      2919      2919      2920      2919      2921      2919      2922
      2922      2923      2922      2924      2922      2925      2925      2926
      2925      2927      2925      2928      2928      2929      2928      2930
      2928      2931      2932      2933      2932      2934      2932      2935
      2932      2936      2936      2937      2936      2938      2936      2939
      2939      2940      2939      2941      2939      2946      2946      2942
      2942      2945      2942      2943      2942      2944      2947      2948
      2947      2949      2947      2950      2947      2945      2950      2951
      2950      2958      2950      2952      2958      2959      2958      2960
      2958      2961      2952      2953      2953      2955      2953      2954
      2955      2956      2955      2957      2955      2967      2967      2968
      2967      2969      2967      2970      2970      2971      2970      2972
      2970      2973      2973      2974      2973      2975      2973      2976
      2976      2977      2976      2978      2976      2979      2979      2980
      2979      2981      2979      2982      2982      2983      2982      2984
      2982      2985      2985      2986      2985      2990      2985      2987
      2990      2991      2990      2992      2990      2987      2992      2993
      2992      2994      2992      2995      2995      2996      2995      2997
      2995      2998      2998      2999      2998      3000      2998      3001
      3001      3002      3001      3003      3001      3004      3004      3005
      3004      3006      3004      3007      3007      3008      3007      3009
      3007      3010      2987      2988      2987      2989      2961      2962
      2962      2964      2962      2963      2964      2965      2964      2966
      2964      3011      3011      3012      3011      3013      3011      3014
      3014      3015      3014      3016      3014      3017      3017      3018
      3017      3019      3017      3020      3020      3021      3020      3022
      3020      3023      3023      3024      3023      3025      3023      3026
      3026      3027      3026      3028      3026      3029      3029      3030
      3029      3031      3029      3032      3032      3033      3032      3034
      3032      3035      3035      3036      3035      3037      3035      3038
      3038      3039      3038      3040      3038      3041      3041      3042
      3041      3043      3041      3044      3044      3045      3044      3046
      3044      3047      3047      3048      3047      3049      3047      3050
      3050      3051      3050      3052      3050      3053      3054      3055
      3054      3056      3054      3057      3054      3058      3058      3059
      3058      3060      3058      3061      3061      3062      3061      3063
      3061      3068      3068      3064      3064      3067      3064      3065
      3064      3066      3069      3070      3069      3071      3069      3072
      3069      3067      3072      3073      3072      3080      3072      3074
      3080      3081      3080      3082      3080      3083      3074      3075
      3075      3077      3075      3076      3077      3078      3077      3079
      3077      3089      3089      3090      3089      3091      3089      3092
      3092      3093      3092      3094      3092      3095      3095      3096
      3095      3097      3095      3098      3098      3099      3098      3100
      3098      3101      3101      3102      3101      3103      3101      3104
      3104      3105      3104      3106      3104      3107      3107      3108
      3107      3112      3107      3109      3112      3113      3112      3114
      3112      3109      3114      3115      3114      3116      3114      3117
      3117      3118      3117      3119      3117      3120      3120      3121
      3120      3122      3120      3123      3123      3124      3123      3125
      3123      3126      3126      3127      3126      3128      3126      3129
      3129      3130      3129      3131      3129      3132      3109      3110
      3109      3111      3083      3084      3084      3086      3084      3085
      3086      3087      3086      3088      3086      3133      3133      3134
      3133      3135      3133      3136      3136      3137      3136      3138
      3136      3139      3139      3140      3139      3141      3139      3142
      3142      3143      3142      3144      3142      3145      3145      3146
      3145      3147      3145      3148      3148      3149      3148      3150
      3148      3151      3151      3152      3151      3153      3151      3154
      3154      3155      3154      3156      3154      3157      3157      3158
      3157      3159      3157      3160      3160      3161      3160      3162
      3160      3163      3163      3164      3163      3165      3163      3166
      3166      3167      3166      3168      3166      3169      3169      3170
      3169      3171      3169      3172      3172      3173      3172      3174
      3172      3175      3176      3177      3176      3178      3176      3179
      3176      3180      3180      3181      3180      3182      3180      3183
      3183      3184      3183      3185      3183      3190      3190      3186
      3186      3189      3186      3187      3186      3188      3191      3192
      3191      3193      3191      3194      3191      3189      3194      3195
      3194      3202      3194      3196      3202      3203      3202      3204
      3202      3205      3196      3197      3197      3199      3197      3198
      3199      3200      3199      3201      3199      3211      3211      3212
      3211      3213      3211      3214      3214      3215      3214      3216
      3214      3217      3217      3218      3217      3219      3217      3220
      3220      3221      3220      3222      3220      3223      3223      3224
      3223      3225      3223      3226      3226      3227      3226      3228
      3226      3229      3229      3230      3229      3234      3229      3231
      3234      3235      3234      3236      3234      3231      3236      3237
      3236      3238      3236      3239      3239      3240      3239      3241
      3239      3242      3242      3243      3242      3244      3242      3245
      3245      3246      3245      3247      3245      3248      3248      3249
      3248      3250      3248      3251      3251      3252      3251      3253
      3251      3254      3231      3232      3231      3233      3205      3206
      3206      3208      3206      3207      3208      3209      3208      3210
      3208      3255      3255      3256      3255      3257      3255      3258
      3258      3259      3258      3260      3258      3261      3261      3262
      3261      3263      3261      3264      3264      3265      3264      3266
      3264      3267      3267      3268      3267      3269      3267      3270
      3270      3271      3270      3272      3270      3273      3273      3274
      3273      3275      3273      3276      3276      3277      3276      3278
      3276      3279      3279      3280      3279      3281      3279      3282
      3282      3283      3282      3284      3282      3285      3285      3286
      3285      3287      3285      3288      3288      3289      3288      3290
      3288      3291      3291      3292      3291      3293      3291      3294
      3294      3295      3294      3296      3294      3297      3298      3299
      3298      3300      3298      3301      3298      3302      3302      3303
      3302      3304      3302      3305      3305      3306      3305      3307
      3305      3312      3312      3308      3308      3311      3308      3309
      3308      3310      3313      3314      3313      3315      3313      3316
      3313      3311      3316      3317      3316      3324      3316      3318
      3324      3325      3324      3326      3324      3327      3318      3319
      3319      3321      3319      3320      3321      3322      3321      3323
      3321      3333      3333      3334      3333      3335      3333      3336
      3336      3337      3336      3338      3336      3339      3339      3340
      3339      3341      3339      3342      3342      3343      3342      3344
      3342      3345      3345      3346      3345      3347      3345      3348
      3348      3349      3348      3350      3348      3351      3351      3352
      3351      3356      3351      3353      3356      3357      3356      3358
      3356      3353      3358      3359      3358      3360      3358      3361
      3361      3362      3361      3363      3361      3364      3364      3365
      3364      3366      3364      3367      3367      3368      3367      3369
      3367      3370      3370      3371      3370      3372      3370      3373
      3373      3374      3373      3375      3373      3376      3353      3354
      3353      3355      3327      3328      3328      3330      3328      3329
      3330      3331      3330      3332      3330      3377      3377      3378
      3377      3379      3377      3380      3380      3381      3380      3382
      3380      3383      3383      3384      3383      3385      3383      3386
      3386      3387      3386      3388      3386      3389      3389      3390
      3389      3391      3389      3392      3392      3393      3392      3394
      3392      3395      3395      3396      3395      3397      3395      3398
      3398      3399      3398      3400      3398      3401      3401      3402
      3401      3403      3401      3404      3404      3405      3404      3406
      3404      3407      3407      3408      3407      3409      3407      3410
      3410      3411      3410      3412      3410      3413      3413      3414
      3413      3415      3413      3416      3416      3417      3416      3418
      3416      3419      3424      3423      3423      3420      3420      3421
      3420      3422      3420      3425      3428      3427      3427      3425
      3425      3426      3425      3429      3429      3430      3429      3431
      3429      3436      3436      3432      3432      3435      3432      3433
      3432      3434      3437      3438      3437      3439      3437      3440
      3437      3435      3440      3441      3440      3448      3440      3442
      3448      3449      3448      3450      3448      3451      3442      3443
      3443      3445      3443      3444      3445      3446      3445      3447
      3445      3457      3457      3458      3457      3459      3457      3460
      3460      3461      3460      3462      3460      3463      3463      3464
      3463      3465      3463      3466      3466      3467      3466      3468
      3466      3469      3469      3470      3469      3471      3469      3472
      3472      3473      3472      3474      3472      3475      3475      3476
      3475      3480      3475      3477      3480      3481      3480      3482
      3480      3477      3482      3483      3482      3484      3482      3485
      3485      3486      3485      3487      3485      3488      3488      3489
      3488      3490      3488      3491      3491      3492      3491      3493
      3491      3494      3494      3495      3494      3496      3494      3497
      3497      3498      3497      3499      3497      3500      3477      3478
      3477      3479      3451      3452      3452      3454      3452      3453
      3454      3455      3454      3456      3454      3501      3501      3502
      3501      3503      3501      3504      3504      3505      3504      3506
      3504      3507      3507      3508      3507      3509      3507      3510
      3510      3511      3510      3512      3510      3513      3513      3514
      3513      3515      3513      3516      3516      3517      3516      3518
      3516      3519      3519      3520      3519      3521      3519      3522
      3522      3523      3522      3524      3522      3525      3525      3526
      3525      3527      3525      3528      3528      3529      3528      3530
      3528      3531      3531      3532      3531      3533      3531      3534
      3534      3535      3534      3536      3534      3537      3537      3538
      3537      3539      3537      3540      3540      3541      3540      3542
      3540      3543      3544      3545      3544      3546      3544      3547
      3544      3548      3548      3549      3548      3550      3548      3551
      3551      3552      3551      3553      3551      3558      3558      3554
      3554      3557      3554      3555      3554      3556      3559      3560
      3559      3561      3559      3562      3559      3557      3562      3563
      3562      3570      3562      3564      3570      3571      3570      3572
      3570      3573      3564      3565      3565      3567      3565      3566
      3567      3568      3567      3569      3567      3579      3579      3580
      3579      3581      3579      3582      3582      3583      3582      3584
      3582      3585      3585      3586      3585      3587      3585      3588
      3588      3589      3588      3590      3588      3591      3591      3592
      3591      3593      3591      3594      3594      3595      3594      3596
      3594      3597      3597      3598      3597      3602      3597      3599
      3602      3603      3602      3604      3602      3599      3604      3605
      3604      3606      3604      3607      3607      3608      3607      3609
      3607      3610      3610      3611      3610      3612      3610      3613
      3613      3614      3613      3615      3613      3616      3616      3617
      3616      3618      3616      3619      3619      3620      3619      3621
      3619      3622      3599      3600      3599      3601      3573      3574
      3574      3576      3574      3575      3576      3577      3576      3578
      3576      3623      3623      3624      3623      3625      3623      3626
      3626      3627      3626      3628      3626      3629      3629      3630
      3629      3631      3629      3632      3632      3633      3632      3634
      3632      3635      3635      3636      3635      3637      3635      3638
      3638      3639      3638      3640      3638      3641      3641      3642
      3641      3643      3641      3644      3644      3645      3644      3646
      3644      3647      3647      3648      3647      3649      3647      3650
      3650      3651      3650      3652      3650      3653      3653      3654
      3653      3655      3653      3656      3656      3657      3656      3658
      3656      3659      3659      3660      3659      3661      3659      3662
      3662      3663      3662      3664      3662      3665      3670      3669
      3669      3666      3666      3667      3666      3668      3666      3671
      3674      3673      3673      3671      3671      3672      3671      3675
      3675      3676      3675      3677      3675      3682      3682      3678
      3678      3681      3678      3679      3678      3680      3683      3684
      3683      3685      3683      3686      3683      3681      3686      3687
      3686      3694      3686      3688      3694      3695      3694      3696
      3694      3697      3688      3689      3689      3691      3689      3690
      3691      3692      3691      3693      3691      3703      3703      3704
      3703      3705      3703      3706      3706      3707      3706      3708
      3706      3709      3709      3710      3709      3711      3709      3712
      3712      3713      3712      3714      3712      3715      3715      3716
      3715      3717      3715      3718      3718      3719      3718      3720
      3718      3721      3721      3722      3721      3723      3723      3724
      3723      3725      3725      3726      3725      3727      3725      3728
      3728      3729      3728      3730      3728      3731      3731      3732
      3731      3733      3731      3734      3734      3735      3734      3736
      3734      3737      3737      3738      3737      3739      3737      3740
      3740      3741      3740      3742      3740      3743      3697      3698
      3698      3700      3698      3699      3700      3701      3700      3702
      3700      3744      3744      3745      3744      3746      3744      3747
      3747      3748      3747      3749      3747      3750      3750      3751
      3750      3752      3750      3753      3753      3754      3753      3755
      3753      3756      3756      3757      3756      3758      3756      3759
      3759      3760      3759      3761      3759      3762      3762      3763
      3762      3764      3762      3765      3765      3766      3765      3767
      3765      3768      3768      3769      3768      3770      3768      3771
      3771      3772      3771      3773      3771      3774      3774      3775
      3774      3776      3774      3777      3777      3778      3777      3779
      3777      3780      3780      3781      3780      3782      3780      3783
      3783      3784      3783      3785      3783      3786      3787      3788
      3787      3789      3787      3790      3787      3791      3791      3792
      3791      3793      3791      3794      3794      3795      3794      3796
      3794      3801      3801      3797      3797      3800      3797      3798
      3797      3799      3802      3803      3802      3804      3802      3805
      3802      3800      3805      3806      3805      3813      3805      3807
      3813      3814      3813      3815      3813      3816      3807      3808
      3808      3810      3808      3809      3810      3811      3810      3812
      3810      3822      3822      3823      3822      3824      3822      3825
      3825      3826      3825      3827      3825      3828      3828      3829
      3828      3830      3828      3831      3831      3832      3831      3833
      3831      3834      3834      3835      3834      3836      3834      3837
      3837      3838      3837      3839      3837      3840      3840      3841
      3840      3842      3842      3843      3842      3844      3844      3845
      3844      3846      3844      3847      3847      3848      3847      3849
      3847      3850      3850      3851      3850      3852      3850      3853
      3853      3854      3853      3855      3853      3856      3856      3857
      3856      3858      3856      3859      3859      3860      3859      3861
      3859      3862      3816      3817      3817      3819      3817      3818
      3819      3820      3819      3821      3819      3863      3863      3864
      3863      3865      3863      3866      3866      3867      3866      3868
      3866      3869      3869      3870      3869      3871      3869      3872
      3872      3873      3872      3874      3872      3875      3875      3876
      3875      3877      3875      3878      3878      3879      3878      3880
      3878      3881      3881      3882      3881      3883      3883      3884
      3883      3885      3885      3886      3885      3887      3885      3888
      3888      3889      3888      3890      3888      3891      3891      3892
      3891      3893      3891      3894      3894      3895      3894      3896
      3894      3897      3897      3898      3897      3899      3897      3900
      3900      3901      3900      3902      3900      3903      3903      3904
      3903      3905      3903      3906      3906      3907      3906      3908
      3906      3909      3910      3911      3910      3912      3910      3913
      3910      3914      3914      3915      3914      3916      3914      3917
      3917      3918      3917      3919      3917      3924      3924      3920
      3920      3923      3920      3921      3920      3922      3925      3926
      3925      3927      3925      3928      3925      3923      3928      3929
      3928      3936      3928      3930      3936      3937      3936      3938
      3936      3939      3930      3931      3931      3933      3931      3932
      3933      3934      3933      3935      3933      3945      3945      3946
      3945      3947      3945      3948      3948      3949      3948      3950
      3948      3951      3951      3952      3951      3953      3951      3954
      3954      3955      3954      3956      3954      3957      3957      3958
      3957      3959      3957      3960      3960      3961      3960      3962
      3960      3963      3963      3964      3963      3965      3965      3966
      3965      3967      3967      3968      3967      3969      3967      3970
      3970      3971      3970      3972      3970      3973      3973      3974
      3973      3975      3973      3976      3976      3977      3976      3978
      3976      3979      3979      3980      3979      3981      3979      3982
      3982      3983      3982      3984      3982      3985      3939      3940
      3940      3942      3940      3941      3942      3943      3942      3944
      3942      3986      3986      3987      3986      3988      3986      3989
      3989      3990      3989      3991      3989      3992      3992      3993
      3992      3994      3992      3995      3995      3996      3995      3997
      3995      3998      3998      3999      3998      4000      3998      4001
      4001      4002      4001      4003      4001      4004      4004      4005
      4004      4006      4006      4007      4006      4008      4008      4009
      4008      4010      4008      4011      4011      4012      4011      4013
      4011      4014      4014      4015      4014      4016      4014      4017
      4017      4018      4017      4019      4017      4020      4020      4021
      4020      4022      4020      4023      4023      4024      4023      4025
      4023      4026      4026      4027      4026      4028      4026      4029
      4029      4030      4029      4031      4029      4032      4037      4036
      4036      4033      4033      4034      4033      4035      4033      4038
      4041      4040      4040      4038      4038      4039      4038      4042
      4042      4043      4042      4044      4042      4049      4049      4045
      4045      4048      4045      4046      4045      4047      4050      4051
      4050      4052      4050      4053      4050      4048      4053      4054
      4053      4061      4053      4055      4061      4062      4061      4063
      4061      4064      4055      4056      4056      4058      4056      4057
      4058      4059      4058      4060      4058      4070      4070      4071
      4070      4072      4070      4073      4073      4074      4073      4075
      4073      4076      4076      4077      4076      4078      4076      4079
      4079      4080      4079      4081      4079      4082      4082      4083
      4082      4084      4082      4085      4085      4086      4085      4087
      4085      4088      4088      4089      4088      4093      4088      4090
      4093      4094      4093      4095      4093      4090      4095      4096
      4095      4097      4095      4098      4098      4099      4098      4100
      4098      4101      4101      4102      4101      4103      4101      4104
      4104      4105      4104      4106      4104      4107      4107      4108
      4107      4109      4107      4110      4110      4111      4110      4112
      4110      4113      4090      4091      4090      4092      4064      4065
      4065      4067      4065      4066      4067      4068      4067      4069
      4067      4114      4114      4115      4114      4116      4114      4117
      4117      4118      4117      4119      4117      4120      4120      4121
      4120      4122      4120      4123      4123      4124      4123      4125
      4123      4126      4126      4127      4126      4128      4126      4129
      4129      4130      4129      4131      4129      4132      4132      4133
      4132      4134      4132      4135      4135      4136      4135      4137
      4135      4138      4138      4139      4138      4140      4138      4141
      4141      4142      4141      4143      4141      4144      4144      4145
      4144      4146      4144      4147      4147      4148      4147      4149
      4147      4150      4150      4151      4150      4152      4150      4153
      4153      4154      4153      4155      4153      4156      4157      4158
      4157      4159      4157      4160      4157      4161      4161      4162
      4161      4163      4161      4164      4164      4165      4164      4166
      4164      4171      4171      4167      4167      4170      4167      4168
      4167      4169      4172      4173      4172      4174      4172      4175
      4172      4170      4175      4176      4175      4183      4175      4177
      4183      4184      4183      4185      4183      4186      4177      4178
      4178      4180      4178      4179      4180      4181      4180      4182
      4180      4192      4192      4193      4192      4194      4192      4195
      4195      4196      4195      4197      4195      4198      4198      4199
      4198      4200      4198      4201      4201      4202      4201      4203
      4201      4204      4204      4205      4204      4206      4204      4207
      4207      4208      4207      4209      4207      4210      4210      4211
      4210      4215      4210      4212      4215      4216      4215      4217
      4215      4212      4217      4218      4217      4219      4217      4220
      4220      4221      4220      4222      4220      4223      4223      4224
      4223      4225      4223      4226      4226      4227      4226      4228
      4226      4229      4229      4230      4229      4231      4229      4232
      4232      4233      4232      4234      4232      4235      4212      4213
      4212      4214      4186      4187      4187      4189      4187      4188
      4189      4190      4189      4191      4189      4236      4236      4237
      4236      4238      4236      4239      4239      4240      4239      4241
      4239      4242      4242      4243      4242      4244      4242      4245
      4245      4246      4245      4247      4245      4248      4248      4249
      4248      4250      4248      4251      4251      4252      4251      4253
      4251      4254      4254      4255      4254      4256      4254      4257
      4257      4258      4257      4259      4257      4260      4260      4261
      4260      4262      4260      4263      4263      4264      4263      4265
      4263      4266      4266      4267      4266      4268      4266      4269
      4269      4270      4269      4271      4269      4272      4272      4273
      4272      4274      4272      4275      4275      4276      4275      4277
      4275      4278      4279      4280      4279      4281      4279      4282
      4279      4283      4283      4284      4283      4285      4283      4286
      4286      4287      4286      4288      4286      4293      4293      4289
      4289      4292      4289      4290      4289      4291      4294      4295
      4294      4296      4294      4297      4294      4292      4297      4298
      4297      4305      4297      4299      4305      4306      4305      4307
      4305      4308      4299      4300      4300      4302      4300      4301
      4302      4303      4302      4304      4302      4314      4314      4315
      4314      4316      4314      4317      4317      4318      4317      4319
      4317      4320      4320      4321      4320      4322      4320      4323
      4323      4324      4323      4325      4323      4326      4326      4327
      4326      4328      4326      4329      4329      4330      4329      4331
      4329      4332      4332      4333      4332      4334      4334      4335
      4334      4336      4336      4337      4336      4338      4336      4339
      4339      4340      4339      4341      4339      4342      4342      4343
      4342      4344      4342      4345      4345      4346      4345      4347
      4345      4348      4348      4349      4348      4350      4348      4351
      4351      4352      4351      4353      4351      4354      4354      4355
      4354      4356      4354      4357      4357      4358      4357      4359
      4357      4360      4308      4309      4309      4311      4309      4310
      4311      4312      4311      4313      4311      4361      4361      4362
      4361      4363      4361      4364      4364      4365      4364      4366
      4364      4367      4367      4368      4367      4369      4367      4370
      4370      4371      4370      4372      4370      4373      4373      4374
      4373      4375      4373      4376      4376      4377      4376      4378
      4376      4379      4379      4380      4379      4381      4379      4382
      4382      4383      4382      4384      4382      4385      4385      4386
      4385      4387      4385      4388      4388      4389      4388      4390
      4388      4391      4391      4392      4391      4393      4391      4394
      4394      4395      4394      4396      4394      4397      4397      4398
      4397      4399      4397      4400      4400      4401      4400      4402
      4400      4403      4404      4405      4404      4406      4404      4407
      4404      4408      4408      4409      4408      4410      4408      4411
      4411      4412      4411      4413      4411      4418      4418      4414
      4414      4417      4414      4415      4414      4416      4419      4420
      4419      4421      4419      4422      4419      4417      4422      4423
      4422      4430      4422      4424      4430      4431      4430      4432
      4430      4433      4424      4425      4425      4427      4425      4426
      4427      4428      4427      4429      4427      4439      4439      4440
      4439      4441      4439      4442      4442      4443      4442      4444
      4442      4445      4445      4446      4445      4447      4445      4448
      4448      4449      4448      4450      4448      4451      4451      4452
      4451      4453      4451      4454      4454      4455      4454      4456
      4454      4457      4457      4458      4457      4459      4459      4460
      4459      4461      4461      4462      4461      4463      4461      4464
      4464      4465      4464      4466      4464      4467      4467      4468
      4467      4469      4467      4470      4470      4471      4470      4472
      4470      4473      4473      4474      4473      4475      4473      4476
      4476      4477      4476      4478      4476      4479      4433      4434
      4434      4436      4434      4435      4436      4437      4436      4438
      4436      4480      4480      4481      4480      4482      4480      4483
      4483      4484      4483      4485      4483      4486      4486      4487
      4486      4488      4486      4489      4489      4490      4489      4491
      4489      4492      4492      4493      4492      4494      4492      4495
      4495      4496      4495      4497      4495      4498      4498      4499
      4498      4500      4500      4501      4500      4502      4502      4503
      4502      4504      4502      4505      4505      4506      4505      4507
      4505      4508      4508      4509      4508      4510      4508      4511
      4511      4512      4511      4513      4511      4514      4514      4515
      4514      4516      4514      4517      4517      4518      4517      4519
      4517      4520      4520      4521      4520      4522      4520      4523
      4523      4524      4523      4525      4523      4526      4527      4528
      4527      4529      4527      4530      4527      4531      4531      4532
      4531      4533      4531      4534      4534      4535      4534      4536
      4534      4541      4541      4537      4537      4540      4537      4538
      4537      4539      4542      4543      4542      4544      4542      4545
      4542      4540      4545      4546      4545      4553      4545      4547
      4553      4554      4553      4555      4553      4556      4547      4548
      4548      4550      4548      4549      4550      4551      4550      4552
      4550      4562      4562      4563      4562      4564      4562      4565
      4565      4566      4565      4567      4565      4568      4568      4569
      4568      4570      4568      4571      4571      4572      4571      4573
      4571      4574      4574      4575      4574      4576      4574      4577
      4577      4578      4577      4579      4577      4580      4580      4581
      4580      4585      4580      4582      4585      4586      4585      4587
      4585      4582      4587      4588      4587      4589      4587      4590
      4590      4591      4590      4592      4590      4593      4593      4594
      4593      4595      4593      4596      4596      4597      4596      4598
      4596      4599      4599      4600      4599      4601      4599      4602
      4602      4603      4602      4604      4602      4605      4582      4583
      4582      4584      4556      4557      4557      4559      4557      4558
      4559      4560      4559      4561      4559      4606      4606      4607
      4606      4608      4606      4609      4609      4610      4609      4611
      4609      4612      4612      4613      4612      4614      4612      4615
      4615      4616      4615      4617      4615      4618      4618      4619
      4618      4620      4618      4621      4621      4622      4621      4623
      4621      4624      4624      4625      4624      4626      4624      4627
      4627      4628      4627      4629      4627      4630      4630      4631
      4630      4632      4630      4633      4633      4634      4633      4635
      4633      4636      4636      4637      4636      4638      4636      4639
      4639      4640      4639      4641      4639      4642      4642      4643
      4642      4644      4642      4645      4645      4646      4645      4647
      4645      4648      4649      4650      4649      4651      4649      4652
      4649      4653      4653      4654      4653      4655      4653      4656
      4656      4657      4656      4658      4656      4663      4663      4659
      4659      4662      4659      4660      4659      4661      4664      4665
      4664      4666      4664      4667      4664      4662      4667      4668
      4667      4675      4667      4669      4675      4676      4675      4677
      4675      4678      4669      4670      4670      4672      4670      4671
      4672      4673      4672      4674      4672      4684      4684      4685
      4684      4686      4684      4687      4687      4688      4687      4689
      4687      4690      4690      4691      4690      4692      4690      4693
      4693      4694      4693      4695      4693      4696      4696      4697
      4696      4698      4696      4699      4699      4700      4699      4701
      4699      4702      4702      4703      4702      4707      4702      4704
      4707      4708      4707      4709      4707      4704      4709      4710
      4709      4711      4709      4712      4712      4713      4712      4714
      4712      4715      4715      4716      4715      4717      4715      4718
      4718      4719      4718      4720      4718      4721      4721      4722
      4721      4723      4721      4724      4724      4725      4724      4726
      4724      4727      4704      4705      4704      4706      4678      4679
      4679      4681      4679      4680      4681      4682      4681      4683
      4681      4728      4728      4729      4728      4730      4728      4731
      4731      4732      4731      4733      4731      4734      4734      4735
      4734      4736      4734      4737      4737      4738      4737      4739
      4737      4740      4740      4741      4740      4742      4740      4743
      4743      4744      4743      4745      4743      4746      4746      4747
      4746      4748      4746      4749      4749      4750      4749      4751
      4749      4752      4752      4753      4752      4754      4752      4755
      4755      4756      4755      4757      4755      4758      4758      4759
      4758      4760      4758      4761      4761      4762      4761      4763
      4761      4764      4764      4765      4764      4766      4764      4767
      4767      4768      4767      4769      4767      4770      4775      4774
      4774      4771      4771      4772      4771      4773      4771      4776
      4779      4778      4778      4776      4776      4777      4776      4780
      4780      4781      4780      4782      4780      4787      4787      4783
      4783      4786      4783      4784      4783      4785      4788      4789
      4788      4790      4788      4791      4788      4786      4791      4792
      4791      4799      4791      4793      4799      4800      4799      4801
      4799      4802      4793      4794      4794      4796      4794      4795
      4796      4797      4796      4798      4796      4808      4808      4809
      4808      4810      4808      4811      4811      4812      4811      4813
      4811      4814      4814      4815      4814      4816      4814      4817
      4817      4818      4817      4819      4817      4820      4820      4821
      4820      4822      4820      4823      4823      4824      4823      4825
      4823      4826      4826      4827      4826      4831      4826      4828
      4831      4832      4831      4833      4831      4828      4833      4834
      4833      4835      4833      4836      4836      4837      4836      4838
      4836      4839      4839      4840      4839      4841      4839      4842
      4842      4843      4842      4844      4842      4845      4845      4846
      4845      4847      4845      4848      4848      4849      4848      4850
      4848      4851      4828      4829      4828      4830      4802      4803
      4803      4805      4803      4804      4805      4806      4805      4807
      4805      4852      4852      4853      4852      4854      4852      4855
      4855      4856      4855      4857      4855      4858      4858      4859
      4858      4860      4858      4861      4861      4862      4861      4863
      4861      4864      4864      4865      4864      4866      4864      4867
      4867      4868      4867      4869      4867      4870      4870      4871
      4870      4872      4870      4873      4873      4874      4873      4875
      4873      4876      4876      4877      4876      4878      4876      4879
      4879      4880      4879      4881      4879      4882      4882      4883
      4882      4884      4882      4885      4885      4886      4885      4887
      4885      4888      4888      4889      4888      4890      4888      4891
      4891      4892      4891      4893      4891      4894      4895      4896
      4895      4897      4895      4898      4895      4899      4899      4900
      4899      4901      4899      4902      4902      4903      4902      4904
      4902      4909      4909      4905      4905      4908      4905      4906
      4905      4907      4910      4911      4910      4912      4910      4913
      4910      4908      4913      4914      4913      4921      4913      4915
      4921      4922      4921      4923      4921      4924      4915      4916
      4916      4918      4916      4917      4918      4919      4918      4920
      4918      4930      4930      4931      4930      4932      4930      4933
      4933      4934      4933      4935      4933      4936      4936      4937
      4936      4938      4936      4939      4939      4940      4939      4941
      4939      4942      4942      4943      4942      4944      4942      4945
      4945      4946      4945      4947      4945      4948      4948      4949
      4948      4953      4948      4950      4953      4954      4953      4955
      4953      4950      4955      4956      4955      4957      4955      4958
      4958      4959      4958      4960      4958      4961      4961      4962
      4961      4963      4961      4964      4964      4965      4964      4966
      4964      4967      4967      4968      4967      4969      4967      4970
      4970      4971      4970      4972      4970      4973      4950      4951
      4950      4952      4924      4925      4925      4927      4925      4926
      4927      4928      4927      4929      4927      4974      4974      4975
      4974      4976      4974      4977      4977      4978      4977      4979
      4977      4980      4980      4981      4980      4982      4980      4983
      4983      4984      4983      4985      4983      4986      4986      4987
      4986      4988      4986      4989      4989      4990      4989      4991
      4989      4992      4992      4993      4992      4994      4992      4995
      4995      4996      4995      4997      4995      4998      4998      4999
      4998      5000      4998      5001      5001      5002      5001      5003
      5001      5004      5004      5005      5004      5006      5004      5007
      5007      5008      5007      5009      5007      5010      5010      5011
      5010      5012      5010      5013      5014      5015      5014      5016
      5014      5017      5014      5018      5018      5019      5018      5020
      5018      5021      5021      5022      5021      5023      5021      5028
      5028      5024      5024      5027      5024      5025      5024      5026
      5029      5030      5029      5031      5029      5032      5029      5027
      5032      5033      5032      5040      5032      5034      5040      5041
      5040      5042      5040      5043      5034      5035      5035      5037
      5035      5036      5037      5038      5037      5039      5037      5049
      5049      5050      5049      5051      5049      5052      5052      5053
      5052      5054      5052      5055      5055      5056      5055      5057
      5055      5058      5058      5059      5058      5060      5058      5061
      5061      5062      5061      5063      5061      5064      5064      5065
      5064      5066      5064      5067      5067      5068      5067      5072
      5067      5069      5072      5073      5072      5074      5072      5069
      5074      5075      5074      5076      5074      5077      5077      5078
      5077      5079      5077      5080      5080      5081      5080      5082
      5080      5083      5083      5084      5083      5085      5083      5086
      5086      5087      5086      5088      5086      5089      5089      5090
      5089      5091      5089      5092      5069      5070      5069      5071
      5043      5044      5044      5046      5044      5045      5046      5047
      5046      5048      5046      5093      5093      5094      5093      5095
      5093      5096      5096      5097      5096      5098      5096      5099
      5099      5100      5099      5101      5099      5102      5102      5103
      5102      5104      5102      5105      5105      5106      5105      5107
      5105      5108      5108      5109      5108      5110      5108      5111
      5111      5112      5111      5113      5111      5114      5114      5115
      5114      5116      5114      5117      5117      5118      5117      5119
      5117      5120      5120      5121      5120      5122      5120      5123
      5123      5124      5123      5125      5123      5126      5126      5127
      5126      5128      5126      5129      5129      5130      5129      5131
      5129      5132      5132      5133      5132      5134      5132      5135
      5136      5137      5136      5138      5136      5139      5136      5140
      5140      5141      5140      5142      5140      5143      5143      5144
      5143      5145      5143      5150      5150      5146      5146      5149
      5146      5147      5146      5148      5151      5152      5151      5153
      5151      5154      5151      5149      5154      5155      5154      5162
      5154      5156      5162      5163      5162      5164      5162      5165
      5156      5157      5157      5159      5157      5158      5159      5160
      5159      5161      5159      5171      5171      5172      5171      5173
      5171      5174      5174      5175      5174      5176      5174      5177
      5177      5178      5177      5179      5177      5180      5180      5181
      5180      5182      5180      5183      5183      5184      5183      5185
      5183      5186      5186      5187      5186      5188      5186      5189
      5189      5190      5189      5194      5189      5191      5194      5195
      5194      5196      5194      5191      5196      5197      5196      5198
      5196      5199      5199      5200      5199      5201      5199      5202
      5202      5203      5202      5204      5202      5205      5205      5206
      5205      5207      5205      5208      5208      5209      5208      5210
      5208      5211      5211      5212      5211      5213      5211      5214
      5191      5192      5191      5193      5165      5166      5166      5168
      5166      5167      5168      5169      5168      5170      5168      5215
      5215      5216      5215      5217      5215      5218      5218      5219
      5218      5220      5218      5221      5221      5222      5221      5223
      5221      5224      5224      5225      5224      5226      5224      5227
      5227      5228      5227      5229      5227      5230      5230      5231
      5230      5232      5230      5233      5233      5234      5233      5235
      5233      5236      5236      5237      5236      5238      5236      5239
      5239      5240      5239      5241      5239      5242      5242      5243
      5242      5244      5242      5245      5245      5246      5245      5247
      5245      5248      5248      5249      5248      5250      5248      5251
      5251      5252      5251      5253      5251      5254      5255      5256
      5255      5257      5255      5258      5255      5259      5259      5260
      5259      5261      5259      5262      5262      5263      5262      5264
      5262      5269      5269      5265      5265      5268      5265      5266
      5265      5267      5270      5271      5270      5272      5270      5273
      5270      5268      5273      5274      5273      5281      5273      5275
      5281      5282      5281      5283      5281      5284      5275      5276
      5276      5278      5276      5277      5278      5279      5278      5280
      5278      5290      5290      5291      5290      5292      5290      5293
      5293      5294      5293      5295      5293      5296      5296      5297
      5296      5298      5296      5299      5299      5300      5299      5301
      5299      5302      5302      5303      5302      5304      5302      5305
      5305      5306      5305      5307      5305      5308      5308      5309
      5308      5313      5308      5310      5313      5314      5313      5315
      5313      5310      5315      5316      5315      5317      5315      5318
      5318      5319      5318      5320      5318      5321      5321      5322
      5321      5323      5321      5324      5324      5325      5324      5326
      5324      5327      5327      5328      5327      5329      5327      5330
      5330      5331      5330      5332      5330      5333      5310      5311
      5310      5312      5284      5285      5285      5287      5285      5286
      5287      5288      5287      5289      5287      5334      5334      5335
      5334      5336      5334      5337      5337      5338      5337      5339
      5337      5340      5340      5341      5340      5342      5340      5343
      5343      5344      5343      5345      5343      5346      5346      5347
      5346      5348      5346      5349      5349      5350      5349      5351
      5349      5352      5352      5353      5352      5354      5352      5355
      5355      5356      5355      5357      5355      5358      5358      5359
      5358      5360      5358      5361      5361      5362      5361      5363
      5361      5364      5364      5365      5364      5366      5364      5367
      5367      5368      5367      5369      5367      5370      5370      5371
      5370      5372      5370      5373      5373      5374      5373      5375
      5373      5376      5377      5378      5377      5379      5377      5380
      5377      5381      5381      5382      5381      5383      5381      5384
      5384      5385      5384      5386      5384      5391      5391      5387
      5387      5390      5387      5388      5387      5389      5392      5393
      5392      5394      5392      5395      5392      5390      5395      5396
      5395      5403      5395      5397      5403      5404      5403      5405
      5403      5406      5397      5398      5398      5400      5398      5399
      5400      5401      5400      5402      5400      5412      5412      5413
      5412      5414      5412      5415      5415      5416      5415      5417
      5415      5418      5418      5419      5418      5420      5418      5421
      5421      5422      5421      5423      5421      5424      5424      5425
      5424      5426      5424      5427      5427      5428      5427      5429
      5427      5430      5430      5431      5430      5435      5430      5432
      5435      5436      5435      5437      5435      5432      5437      5438
      5437      5439      5437      5440      5440      5441      5440      5442
      5440      5443      5443      5444      5443      5445      5443      5446
      5446      5447      5446      5448      5446      5449      5449      5450
      5449      5451      5449      5452      5452      5453      5452      5454
      5452      5455      5432      5433      5432      5434      5406      5407
      5407      5409      5407      5408      5409      5410      5409      5411
      5409      5456      5456      5457      5456      5458      5456      5459
      5459      5460      5459      5461      5459      5462      5462      5463
      5462      5464      5462      5465      5465      5466      5465      5467
      5465      5468      5468      5469      5468      5470      5468      5471
      5471      5472      5471      5473      5471      5474      5474      5475
      5474      5476      5474      5477      5477      5478      5477      5479
      5477      5480      5480      5481      5480      5482      5480      5483
      5483      5484      5483      5485      5483      5486      5486      5487
      5486      5488      5486      5489      5489      5490      5489      5491
      5489      5492      5492      5493      5492      5494      5492      5495
      5495      5496      5495      5497      5495      5498      5499      5500
      5499      5501      5499      5502      5499      5503      5503      5504
      5503      5505      5503      5506      5506      5507      5506      5508
      5506      5513      5513      5509      5509      5512      5509      5510
      5509      5511      5514      5515      5514      5516      5514      5517
      5514      5512      5517      5518      5517      5525      5517      5519
      5525      5526      5525      5527      5525      5528      5519      5520
      5520      5522      5520      5521      5522      5523      5522      5524
      5522      5534      5534      5535      5534      5536      5534      5537
      5537      5538      5537      5539      5537      5540      5540      5541
      5540      5542      5540      5543      5543      5544      5543      5545
      5543      5546      5546      5547      5546      5548      5546      5549
      5549      5550      5549      5551      5549      5552      5552      5553
      5552      5557      5552      5554      5557      5558      5557      5559
      5557      5554      5559      5560      5559      5561      5559      5562
      5562      5563      5562      5564      5562      5565      5565      5566
      5565      5567      5565      5568      5568      5569      5568      5570
      5568      5571      5571      5572      5571      5573      5571      5574
      5574      5575      5574      5576      5574      5577      5554      5555
      5554      5556      5528      5529      5529      5531      5529      5530
      5531      5532      5531      5533      5531      5578      5578      5579
      5578      5580      5578      5581      5581      5582      5581      5583
      5581      5584      5584      5585      5584      5586      5584      5587
      5587      5588      5587      5589      5587      5590      5590      5591
      5590      5592      5590      5593      5593      5594      5593      5595
      5593      5596      5596      5597      5596      5598      5596      5599
      5599      5600      5599      5601      5599      5602      5602      5603
      5602      5604      5602      5605      5605      5606      5605      5607
      5605      5608      5608      5609      5608      5610      5608      5611
      5611      5612      5611      5613      5611      5614      5614      5615
      5614      5616      5614      5617      5617      5618      5617      5619
      5617      5620      5625      5624      5624      5621      5621      5622
      5621      5623      5621      5626      5629      5628      5628      5626
      5626      5627      5626      5630      5630      5631      5630      5632
      5630      5637      5637      5633      5633      5636      5633      5634
      5633      5635      5638      5639      5638      5640      5638      5641
      5638      5636      5641      5642      5641      5649      5641      5643
      5649      5650      5649      5651      5649      5652      5643      5644
      5644      5646      5644      5645      5646      5647      5646      5648
      5646      5658      5658      5659      5658      5660      5658      5661
      5661      5662      5661      5663      5661      5664      5664      5665
      5664      5666      5664      5667      5667      5668      5667      5669
      5667      5670      5670      5671      5670      5672      5670      5673
      5673      5674      5673      5675      5673      5676      5676      5677
      5676      5681      5676      5678      5681      5682      5681      5683
      5681      5678      5683      5684      5683      5685      5683      5686
      5686      5687      5686      5688      5686      5689      5689      5690
      5689      5691      5689      5692      5692      5693      5692      5694
      5692      5695      5695      5696      5695      5697      5695      5698
      5698      5699      5698      5700      5698      5701      5678      5679
      5678      5680      5652      5653      5653      5655      5653      5654
      5655      5656      5655      5657      5655      5702      5702      5703
      5702      5704      5702      5705      5705      5706      5705      5707
      5705      5708      5708      5709      5708      5710      5708      5711
      5711      5712      5711      5713      5711      5714      5714      5715
      5714      5716      5714      5717      5717      5718      5717      5719
      5717      5720      5720      5721      5720      5722      5720      5723
      5723      5724      5723      5725      5723      5726      5726      5727
      5726      5728      5726      5729      5729      5730      5729      5731
      5729      5732      5732      5733      5732      5734      5732      5735
      5735      5736      5735      5737      5735      5738      5738      5739
      5738      5740      5738      5741      5741      5742      5741      5743
      5741      5744      5749      5748      5748      5745      5745      5746
      5745      5747      5745      5750      5753      5752      5752      5750
      5750      5751      5750      5754      5754      5755      5754      5756
      5754      5761      5761      5757      5757      5760      5757      5758
      5757      5759      5762      5763      5762      5764      5762      5765
      5762      5760      5765      5766      5765      5773      5765      5767
      5773      5774      5773      5775      5773      5776      5767      5768
      5768      5770      5768      5769      5770      5771      5770      5772
      5770      5782      5782      5783      5782      5784      5782      5785
      5785      5786      5785      5787      5785      5788      5788      5789
      5788      5790      5788      5791      5791      5792      5791      5793
      5791      5794      5794      5795      5794      5796      5794      5797
      5797      5798      5797      5799      5797      5800      5800      5801
      5800      5802      5802      5803      5802      5804      5804      5805
      5804      5806      5804      5807      5807      5808      5807      5809
      5807      5810      5810      5811      5810      5812      5810      5813
      5813      5814      5813      5815      5813      5816      5816      5817
      5816      5818      5816      5819      5819      5820      5819      5821
      5819      5822      5776      5777      5777      5779      5777      5778
      5779      5780      5779      5781      5779      5823      5823      5824
      5823      5825      5823      5826      5826      5827      5826      5828
      5826      5829      5829      5830      5829      5831      5829      5832
      5832      5833      5832      5834      5832      5835      5835      5836
      5835      5837      5835      5838      5838      5839      5838      5840
      5838      5841      5841      5842      5841      5843      5841      5844
      5844      5845      5844      5846      5844      5847      5847      5848
      5847      5849      5847      5850      5850      5851      5850      5852
      5850      5853      5853      5854      5853      5855      5853      5856
      5856      5857      5856      5858      5856      5859      5859      5860
      5859      5861      5859      5862      5862      5863      5862      5864
      5862      5865      5870      5869      5869      5866      5866      5867
      5866      5868      5866      5871      5874      5873      5873      5871
      5871      5872      5871      5875      5875      5876      5875      5877
      5875      5882      5882      5878      5878      5881      5878      5879
      5878      5880      5883      5884      5883      5885      5883      5886
      5883      5881      5886      5887      5886      5894      5886      5888
      5894      5895      5894      5896      5894      5897      5888      5889
      5889      5891      5889      5890      5891      5892      5891      5893
      5891      5903      5903      5904      5903      5905      5903      5906
      5906      5907      5906      5908      5906      5909      5909      5910
      5909      5911      5909      5912      5912      5913      5912      5914
      5912      5915      5915      5916      5915      5917      5915      5918
      5918      5919      5918      5920      5918      5921      5921      5922
      5921      5926      5921      5923      5926      5927      5926      5928
      5926      5923      5928      5929      5928      5930      5928      5931
      5931      5932      5931      5933      5931      5934      5934      5935
      5934      5936      5934      5937      5937      5938      5937      5939
      5937      5940      5940      5941      5940      5942      5940      5943
      5943      5944      5943      5945      5943      5946      5923      5924
      5923      5925      5897      5898      5898      5900      5898      5899
      5900      5901      5900      5902      5900      5947      5947      5948
      5947      5949      5947      5950      5950      5951      5950      5952
      5950      5953      5953      5954      5953      5955      5953      5956
      5956      5957      5956      5958      5956      5959      5959      5960
      5959      5961      5959      5962      5962      5963      5962      5964
      5962      5965      5965      5966      5965      5967      5965      5968
      5968      5969      5968      5970      5968      5971      5971      5972
      5971      5973      5971      5974      5974      5975      5974      5976
      5974      5977      5977      5978      5977      5979      5977      5980
      5980      5981      5980      5982      5980      5983      5983      5984
      5983      5985      5983      5986      5986      5987      5986      5988
      5986      5989      5990      5991      5990      5992      5990      5993
      5990      5994      5994      5995      5994      5996      5994      5997
      5997      5998      5997      5999      5997      6004      6004      6000
      6000      6003      6000      6001      6000      6002      6005      6006
      6005      6007      6005      6008      6005      6003      6008      6009
      6008      6016      6008      6010      6016      6017      6016      6018
      6016      6019      6010      6011      6011      6013      6011      6012
      6013      6014      6013      6015      6013      6025      6025      6026
      6025      6027      6025      6028      6028      6029      6028      6030
      6028      6031      6031      6032      6031      6033      6031      6034
      6034      6035      6034      6036      6034      6037      6037      6038
      6037      6039      6037      6040      6040      6041      6040      6042
      6040      6043      6043      6044      6043      6048      6043      6045
      6048      6049      6048      6050      6048      6045      6050      6051
      6050      6052      6050      6053      6053      6054      6053      6055
      6053      6056      6056      6057      6056      6058      6056      6059
      6059      6060      6059      6061      6059      6062      6062      6063
      6062      6064      6062      6065      6065      6066      6065      6067
      6065      6068      6045      6046      6045      6047      6019      6020
      6020      6022      6020      6021      6022      6023      6022      6024
      6022      6069      6069      6070      6069      6071      6069      6072
      6072      6073      6072      6074      6072      6075      6075      6076
      6075      6077      6075      6078      6078      6079      6078      6080
      6078      6081      6081      6082      6081      6083      6081      6084
      6084      6085      6084      6086      6084      6087      6087      6088
      6087      6089      6087      6090      6090      6091      6090      6092
      6090      6093      6093      6094      6093      6095      6093      6096
      6096      6097      6096      6098      6096      6099      6099      6100
      6099      6101      6099      6102      6102      6103      6102      6104
      6102      6105      6105      6106      6105      6107      6105      6108
      6108      6109      6108      6110      6108      6111      6112      6113
      6112      6114      6112      6115      6112      6116      6116      6117
      6116      6118      6116      6119      6119      6120      6119      6121
      6119      6126      6126      6122      6122      6125      6122      6123
      6122      6124      6127      6128      6127      6129      6127      6130
      6127      6125      6130      6131      6130      6138      6130      6132
      6138      6139      6138      6140      6138      6141      6132      6133
      6133      6135      6133      6134      6135      6136      6135      6137
      6135      6147      6147      6148      6147      6149      6147      6150
      6150      6151      6150      6152      6150      6153      6153      6154
      6153      6155      6153      6156      6156      6157      6156      6158
      6156      6159      6159      6160      6159      6161      6159      6162
      6162      6163      6162      6164      6162      6165      6165      6166
      6165      6170      6165      6167      6170      6171      6170      6172
      6170      6167      6172      6173      6172      6174      6172      6175
      6175      6176      6175      6177      6175      6178      6178      6179
      6178      6180      6178      6181      6181      6182      6181      6183
      6181      6184      6184      6185      6184      6186      6184      6187
      6187      6188      6187      6189      6187      6190      6167      6168
      6167      6169      6141      6142      6142      6144      6142      6143
      6144      6145      6144      6146      6144      6191      6191      6192
      6191      6193      6191      6194      6194      6195      6194      6196
      6194      6197      6197      6198      6197      6199      6197      6200
      6200      6201      6200      6202      6200      6203      6203      6204
      6203      6205      6203      6206      6206      6207      6206      6208
      6206      6209      6209      6210      6209      6211      6209      6212
      6212      6213      6212      6214      6212      6215      6215      6216
      6215      6217      6215      6218      6218      6219      6218      6220
      6218      6221      6221      6222      6221      6223      6221      6224
      6224      6225      6224      6226      6224      6227      6227      6228
      6227      6229      6227      6230      6230      6231      6230      6232
      6230      6233      6234      6235      6234      6236      6234      6237
      6234      6238      6238      6239      6238      6240      6238      6241
      6241      6242      6241      6243      6241      6248      6248      6244
      6244      6247      6244      6245      6244      6246      6249      6250
      6249      6251      6249      6252      6249      6247      6252      6253
      6252      6260      6252      6254      6260      6261      6260      6262
      6260      6263      6254      6255      6255      6257      6255      6256
      6257      6258      6257      6259      6257      6269      6269      6270
      6269      6271      6269      6272      6272      6273      6272      6274
      6272      6275      6275      6276      6275      6277      6275      6278
      6278      6279      6278      6280      6278      6281      6281      6282
      6281      6283      6281      6284      6284      6285      6284      6286
      6284      6287      6287      6288      6287      6292      6287      6289
      6292      6293      6292      6294      6292      6289      6294      6295
      6294      6296      6294      6297      6297      6298      6297      6299
      6297      6300      6300      6301      6300      6302      6300      6303
      6303      6304      6303      6305      6303      6306      6306      6307
      6306      6308      6306      6309      6309      6310      6309      6311
      6309      6312      6289      6290      6289      6291      6263      6264
      6264      6266      6264      6265      6266      6267      6266      6268
      6266      6313      6313      6314      6313      6315      6313      6316
      6316      6317      6316      6318      6316      6319      6319      6320
      6319      6321      6319      6322      6322      6323      6322      6324
      6322      6325      6325      6326      6325      6327      6325      6328
      6328      6329      6328      6330      6328      6331      6331      6332
      6331      6333      6331      6334      6334      6335      6334      6336
      6334      6337      6337      6338      6337      6339      6337      6340
      6340      6341      6340      6342      6340      6343      6343      6344
      6343      6345      6343      6346      6346      6347      6346      6348
      6346      6349      6349      6350      6349      6351      6349      6352
      6352      6353      6352      6354      6352      6355      6356      6357
      6356      6358      6356      6359      6356      6360      6360      6361
      6360      6362      6360      6363      6363      6364      6363      6365
      6363      6370      6370      6366      6366      6369      6366      6367
      6366      6368      6371      6372      6371      6373      6371      6374
      6371      6369      6374      6375      6374      6382      6374      6376
      6382      6383      6382      6384      6382      6385      6376      6377
      6377      6379      6377      6378      6379      6380      6379      6381
      6379      6391      6391      6392      6391      6393      6391      6394
      6394      6395      6394      6396      6394      6397      6397      6398
      6397      6399      6397      6400      6400      6401      6400      6402
      6400      6403      6403      6404      6403      6405      6403      6406
      6406      6407      6406      6408      6406      6409      6409      6410
      6409      6414      6409      6411      6414      6415      6414      6416
      6414      6411      6416      6417      6416      6418      6416      6419
      6419      6420      6419      6421      6419      6422      6422      6423
      6422      6424      6422      6425      6425      6426      6425      6427
      6425      6428      6428      6429      6428      6430      6428      6431
      6431      6432      6431      6433      6431      6434      6411      6412
      6411      6413      6385      6386      6386      6388      6386      6387
      6388      6389      6388      6390      6388      6435      6435      6436
      6435      6437      6435      6438      6438      6439      6438      6440
      6438      6441      6441      6442      6441      6443      6441      6444
      6444      6445      6444      6446      6444      6447      6447      6448
      6447      6449      6447      6450      6450      6451      6450      6452
      6450      6453      6453      6454      6453      6455      6453      6456
      6456      6457      6456      6458      6456      6459      6459      6460
      6459      6461      6459      6462      6462      6463      6462      6464
      6462      6465      6465      6466      6465      6467      6465      6468
      6468      6469      6468      6470      6468      6471      6471      6472
      6471      6473      6471      6474      6474      6475      6474      6476
      6474      6477      6482      6481      6481      6478      6478      6479
      6478      6480      6478      6483      6486      6485      6485      6483
      6483      6484      6483      6487      6487      6488      6487      6489
      6487      6494      6494      6490      6490      6493      6490      6491
      6490      6492      6495      6496      6495      6497      6495      6498
      6495      6493      6498      6499      6498      6506      6498      6500
      6506      6507      6506      6508      6506      6509      6500      6501
      6501      6503      6501      6502      6503      6504      6503      6505
      6503      6515      6515      6516      6515      6517      6515      6518
      6518      6519      6518      6520      6518      6521      6521      6522
      6521      6523      6521      6524      6524      6525      6524      6526
      6524      6527      6527      6528      6527      6529      6527      6530
      6530      6531      6530      6532      6530      6533      6533      6534
      6533      6538      6533      6535      6538      6539      6538      6540
      6538      6535      6540      6541      6540      6542      6540      6543
      6543      6544      6543      6545      6543      6546      6546      6547
      6546      6548      6546      6549      6549      6550      6549      6551
      6549      6552      6552      6553      6552      6554      6552      6555
      6555      6556      6555      6557      6555      6558      6535      6536
      6535      6537      6509      6510      6510      6512      6510      6511
      6512      6513      6512      6514      6512      6559      6559      6560
      6559      6561      6559      6562      6562      6563      6562      6564
      6562      6565      6565      6566      6565      6567      6565      6568
      6568      6569      6568      6570      6568      6571      6571      6572
      6571      6573      6571      6574      6574      6575      6574      6576
      6574      6577      6577      6578      6577      6579      6577      6580
      6580      6581      6580      6582      6580      6583      6583      6584
      6583      6585      6583      6586      6586      6587      6586      6588
      6586      6589      6589      6590      6589      6591      6589      6592
      6592      6593      6592      6594      6592      6595      6595      6596
      6595      6597      6595      6598      6598      6599      6598      6600
      6598      6601      6606      6605      6605      6602      6602      6603
      6602      6604      6602      6607      6610      6609      6609      6607
      6607      6608      6607      6611      6611      6612      6611      6613
      6611      6618      6618      6614      6614      6617      6614      6615
      6614      6616      6619      6620      6619      6621      6619      6622
      6619      6617      6622      6623      6622      6630      6622      6624
      6630      6631      6630      6632      6630      6633      6624      6625
      6625      6627      6625      6626      6627      6628      6627      6629
      6627      6639      6639      6640      6639      6641      6639      6642
      6642      6643      6642      6644      6642      6645      6645      6646
      6645      6647      6645      6648      6648      6649      6648      6650
      6648      6651      6651      6652      6651      6653      6651      6654
      6654      6655      6654      6656      6654      6657      6657      6658
      6657      6662      6657      6659      6662      6663      6662      6664
      6662      6659      6664      6665      6664      6666      6664      6667
      6667      6668      6667      6669      6667      6670      6670      6671
      6670      6672      6670      6673      6673      6674      6673      6675
      6673      6676      6676      6677      6676      6678      6676      6679
      6679      6680      6679      6681      6679      6682      6659      6660
      6659      6661      6633      6634      6634      6636      6634      6635
      6636      6637      6636      6638      6636      6683      6683      6684
      6683      6685      6683      6686      6686      6687      6686      6688
      6686      6689      6689      6690      6689      6691      6689      6692
      6692      6693      6692      6694      6692      6695      6695      6696
      6695      6697      6695      6698      6698      6699      6698      6700
      6698      6701      6701      6702      6701      6703      6701      6704
      6704      6705      6704      6706      6704      6707      6707      6708
      6707      6709      6707      6710      6710      6711      6710      6712
      6710      6713      6713      6714      6713      6715      6713      6716
      6716      6717      6716      6718      6716      6719      6719      6720
      6719      6721      6719      6722      6722      6723      6722      6724
      6722      6725      6726      6727      6726      6728      6726      6729
      6726      6730      6730      6731      6730      6732      6730      6733
      6733      6734      6733      6735      6733      6740      6740      6736
      6736      6739      6736      6737      6736      6738      6741      6742
      6741      6743      6741      6744      6741      6739      6744      6745
      6744      6752      6744      6746      6752      6753      6752      6754
      6752      6755      6746      6747      6747      6749      6747      6748
      6749      6750      6749      6751      6749      6761      6761      6762
      6761      6763      6761      6764      6764      6765      6764      6766
      6764      6767      6767      6768      6767      6769      6767      6770
      6770      6771      6770      6772      6770      6773      6773      6774
      6773      6775      6773      6776      6776      6777      6776      6778
      6776      6779      6779      6780      6779      6784      6779      6781
      6784      6785      6784      6786      6784      6781      6786      6787
      6786      6788      6786      6789      6789      6790      6789      6791
      6789      6792      6792      6793      6792      6794      6792      6795
      6795      6796      6795      6797      6795      6798      6798      6799
      6798      6800      6798      6801      6801      6802      6801      6803
      6801      6804      6781      6782      6781      6783      6755      6756
      6756      6758      6756      6757      6758      6759      6758      6760
      6758      6805      6805      6806      6805      6807      6805      6808
      6808      6809      6808      6810      6808      6811      6811      6812
      6811      6813      6811      6814      6814      6815      6814      6816
      6814      6817      6817      6818      6817      6819      6817      6820
      6820      6821      6820      6822      6820      6823      6823      6824
      6823      6825      6823      6826      6826      6827      6826      6828
      6826      6829      6829      6830      6829      6831      6829      6832
      6832      6833      6832      6834      6832      6835      6835      6836
      6835      6837      6835      6838      6838      6839      6838      6840
      6838      6841      6841      6842      6841      6843      6841      6844
      6845      6846      6845      6847      6845      6848      6845      6849
      6849      6850      6849      6851      6849      6852      6852      6853
      6852      6854      6852      6859      6859      6855      6855      6858
      6855      6856      6855      6857      6860      6861      6860      6862
      6860      6863      6860      6858      6863      6864      6863      6871
      6863      6865      6871      6872      6871      6873      6871      6874
      6865      6866      6866      6868      6866      6867      6868      6869
      6868      6870      6868      6880      6880      6881      6880      6882
      6880      6883      6883      6884      6883      6885      6883      6886
      6886      6887      6886      6888      6886      6889      6889      6890
      6889      6891      6889      6892      6892      6893      6892      6894
      6892      6895      6895      6896      6895      6897      6895      6898
      6898      6899      6898      6903      6898      6900      6903      6904
      6903      6905      6903      6900      6905      6906      6905      6907
      6905      6908      6908      6909      6908      6910      6908      6911
      6911      6912      6911      6913      6911      6914      6914      6915
      6914      6916      6914      6917      6917      6918      6917      6919
      6917      6920      6920      6921      6920      6922      6920      6923
      6900      6901      6900      6902      6874      6875      6875      6877
      6875      6876      6877      6878      6877      6879      6877      6924
      6924      6925      6924      6926      6924      6927      6927      6928
      6927      6929      6927      6930      6930      6931      6930      6932
      6930      6933      6933      6934      6933      6935      6933      6936
      6936      6937      6936      6938      6936      6939      6939      6940
      6939      6941      6939      6942      6942      6943      6942      6944
      6942      6945      6945      6946      6945      6947      6945      6948
      6948      6949      6948      6950      6948      6951      6951      6952
      6951      6953      6951      6954      6954      6955      6954      6956
      6954      6957      6957      6958      6957      6959      6957      6960
      6960      6961      6960      6962      6960      6963      6963      6964
      6963      6965      6963      6966      6967      6968      6967      6969
      6967      6970      6967      6971      6971      6972      6971      6973
      6971      6974      6974      6975      6974      6976      6974      6981
      6981      6977      6977      6980      6977      6978      6977      6979
      6982      6983      6982      6984      6982      6985      6982      6980
      6985      6986      6985      6993      6985      6987      6993      6994
      6993      6995      6993      6996      6987      6988      6988      6990
      6988      6989      6990      6991      6990      6992      6990      7002
      7002      7003      7002      7004      7002      7005      7005      7006
      7005      7007      7005      7008      7008      7009      7008      7010
      7008      7011      7011      7012      7011      7013      7011      7014
      7014      7015      7014      7016      7014      7017      7017      7018
      7017      7019      7017      7020      7020      7021      7020      7025
      7020      7022      7025      7026      7025      7027      7025      7022
      7027      7028      7027      7029      7027      7030      7030      7031
      7030      7032      7030      7033      7033      7034      7033      7035
      7033      7036      7036      7037      7036      7038      7036      7039
      7039      7040      7039      7041      7039      7042      7042      7043
      7042      7044      7042      7045      7022      7023      7022      7024
      6996      6997      6997      6999      6997      6998      6999      7000
      6999      7001      6999      7046      7046      7047      7046      7048
      7046      7049      7049      7050      7049      7051      7049      7052
      7052      7053      7052      7054      7052      7055      7055      7056
      7055      7057      7055      7058      7058      7059      7058      7060
      7058      7061      7061      7062      7061      7063      7061      7064
      7064      7065      7064      7066      7064      7067      7067      7068
      7067      7069      7067      7070      7070      7071      7070      7072
      7070      7073      7073      7074      7073      7075      7073      7076
      7076      7077      7076      7078      7076      7079      7079      7080
      7079      7081      7079      7082      7082      7083      7082      7084
      7082      7085      7085      7086      7085      7087      7085      7088
      7089      7090      7089      7091      7089      7092      7089      7093
      7093      7094      7093      7095      7093      7096      7096      7097
      7096      7098      7096      7103      7103      7099      7099      7102
      7099      7100      7099      7101      7104      7105      7104      7106
      7104      7107      7104      7102      7107      7108      7107      7115
      7107      7109      7115      7116      7115      7117      7115      7118
      7109      7110      7110      7112      7110      7111      7112      7113
      7112      7114      7112      7124      7124      7125      7124      7126
      7124      7127      7127      7128      7127      7129      7127      7130
      7130      7131      7130      7132      7130      7133      7133      7134
      7133      7135      7133      7136      7136      7137      7136      7138
      7136      7139      7139      7140      7139      7141      7139      7142
      7142      7143      7142      7147      7142      7144      7147      7148
      7147      7149      7147      7144      7149      7150      7149      7151
      7149      7152      7152      7153      7152      7154      7152      7155
      7155      7156      7155      7157      7155      7158      7158      7159
      7158      7160      7158      7161      7161      7162      7161      7163
      7161      7164      7164      7165      7164      7166      7164      7167
      7144      7145      7144      7146      7118      7119      7119      7121
      7119      7120      7121      7122      7121      7123      7121      7168
      7168      7169      7168      7170      7168      7171      7171      7172
      7171      7173      7171      7174      7174      7175      7174      7176
      7174      7177      7177      7178      7177      7179      7177      7180
      7180      7181      7180      7182      7180      7183      7183      7184
      7183      7185      7183      7186      7186      7187      7186      7188
      7186      7189      7189      7190      7189      7191      7189      7192
      7192      7193      7192      7194      7192      7195      7195      7196
      7195      7197      7195      7198      7198      7199      7198      7200
      7198      7201      7201      7202      7201      7203      7201      7204
      7204      7205      7204      7206      7204      7207      7207      7208
      7207      7209      7207      7210      7211      7212      7211      7213
      7211      7214      7211      7215      7215      7216      7215      7217
      7215      7218      7218      7219      7218      7220      7218      7225
      7225      7221      7221      7224      7221      7222      7221      7223
      7226      7227      7226      7228      7226      7229      7226      7224
      7229      7230      7229      7237      7229      7231      7237      7238
      7237      7239      7237      7240      7231      7232      7232      7234
      7232      7233      7234      7235      7234      7236      7234      7246
      7246      7247      7246      7248      7246      7249      7249      7250
      7249      7251      7249      7252      7252      7253      7252      7254
      7252      7255      7255      7256      7255      7257      7255      7258
      7258      7259      7258      7260      7258      7261      7261      7262
      7261      7263      7261      7264      7264      7265      7264      7269
      7264      7266      7269      7270      7269      7271      7269      7266
      7271      7272      7271      7273      7271      7274      7274      7275
      7274      7276      7274      7277      7277      7278      7277      7279
      7277      7280      7280      7281      7280      7282      7280      7283
      7283      7284      7283      7285      7283      7286      7286      7287
      7286      7288      7286      7289      7266      7267      7266      7268
      7240      7241      7241      7243      7241      7242      7243      7244
      7243      7245      7243      7290      7290      7291      7290      7292
      7290      7293      7293      7294      7293      7295      7293      7296
      7296      7297      7296      7298      7296      7299      7299      7300
      7299      7301      7299      7302      7302      7303      7302      7304
      7302      7305      7305      7306      7305      7307      7305      7308
      7308      7309      7308      7310      7308      7311      7311      7312
      7311      7313      7311      7314      7314      7315      7314      7316
      7314      7317      7317      7318      7317      7319      7317      7320
      7320      7321      7320      7322      7320      7323      7323      7324
      7323      7325      7323      7326      7326      7327      7326      7328
      7326      7329      7329      7330      7329      7331      7329      7332
      7333      7334      7333      7335      7333      7336      7333      7337
      7337      7338      7337      7339      7337      7340      7340      7341
      7340      7342      7340      7347      7347      7343      7343      7346
      7343      7344      7343      7345      7348      7349      7348      7350
      7348      7351      7348      7346      7351      7352      7351      7359
      7351      7353      7359      7360      7359      7361      7359      7362
      7353      7354      7354      7356      7354      7355      7356      7357
      7356      7358      7356      7368      7368      7369      7368      7370
      7368      7371      7371      7372      7371      7373      7371      7374
      7374      7375      7374      7376      7374      7377      7377      7378
      7377      7379      7377      7380      7380      7381      7380      7382
      7380      7383      7383      7384      7383      7385      7383      7386
      7386      7387      7386      7391      7386      7388      7391      7392
      7391      7393      7391      7388      7393      7394      7393      7395
      7393      7396      7396      7397      7396      7398      7396      7399
      7399      7400      7399      7401      7399      7402      7402      7403
      7402      7404      7402      7405      7405      7406      7405      7407
      7405      7408      7408      7409      7408      7410      7408      7411
      7388      7389      7388      7390      7362      7363      7363      7365
      7363      7364      7365      7366      7365      7367      7365      7412
      7412      7413      7412      7414      7412      7415      7415      7416
      7415      7417      7415      7418      7418      7419      7418      7420
      7418      7421      7421      7422      7421      7423      7421      7424
      7424      7425      7424      7426      7424      7427      7427      7428
      7427      7429      7427      7430      7430      7431      7430      7432
      7430      7433      7433      7434      7433      7435      7433      7436
      7436      7437      7436      7438      7436      7439      7439      7440
      7439      7441      7439      7442      7442      7443      7442      7444
      7442      7445      7445      7446      7445      7447      7445      7448
      7448      7449      7448      7450      7448      7451      7451      7452
      7451      7453      7451      7454      7459      7458      7458      7455
      7455      7456      7455      7457      7455      7460      7463      7462
      7462      7460      7460      7461      7460      7464      7464      7465
      7464      7466      7464      7471      7471      7467      7467      7470
      7467      7468      7467      7469      7472      7473      7472      7474
      7472      7475      7472      7470      7475      7476      7475      7483
      7475      7477      7483      7484      7483      7485      7483      7486
      7477      7478      7478      7480      7478      7479      7480      7481
      7480      7482      7480      7492      7492      7493      7492      7494
      7492      7495      7495      7496      7495      7497      7495      7498
      7498      7499      7498      7500      7498      7501      7501      7502
      7501      7503      7501      7504      7504      7505      7504      7506
      7504      7507      7507      7508      7507      7509      7507      7510
      7510      7511      7510      7515      7510      7512      7515      7516
      7515      7517      7515      7512      7517      7518      7517      7519
      7517      7520      7520      7521      7520      7522      7520      7523
      7523      7524      7523      7525      7523      7526      7526      7527
      7526      7528      7526      7529      7529      7530      7529      7531
      7529      7532      7532      7533      7532      7534      7532      7535
      7512      7513      7512      7514      7486      7487      7487      7489
      7487      7488      7489      7490      7489      7491      7489      7536
      7536      7537      7536      7538      7536      7539      7539      7540
      7539      7541      7539      7542      7542      7543      7542      7544
      7542      7545      7545      7546      7545      7547      7545      7548
      7548      7549      7548      7550      7548      7551      7551      7552
      7551      7553      7551      7554      7554      7555      7554      7556
      7554      7557      7557      7558      7557      7559      7557      7560
      7560      7561      7560      7562      7560      7563      7563      7564
      7563      7565      7563      7566      7566      7567      7566      7568
      7566      7569      7569      7570      7569      7571      7569      7572
      7572      7573      7572      7574      7572      7575      7575      7576
      7575      7577      7575      7578      7579      7580      7579      7581
      7579      7582      7579      7583      7583      7584      7583      7585
      7583      7586      7586      7587      7586      7588      7586      7593
      7593      7589      7589      7592      7589      7590      7589      7591
      7594      7595      7594      7596      7594      7597      7594      7592
      7597      7598      7597      7605      7597      7599      7605      7606
      7605      7607      7605      7608      7599      7600      7600      7602
      7600      7601      7602      7603      7602      7604      7602      7614
      7614      7615      7614      7616      7614      7617      7617      7618
      7617      7619      7617      7620      7620      7621      7620      7622
      7620      7623      7623      7624      7623      7625      7623      7626
      7626      7627      7626      7628      7626      7629      7629      7630
      7629      7631      7629      7632      7632      7633      7632      7634
      7634      7635      7634      7636      7636      7637      7636      7638
      7636      7639      7639      7640      7639      7641      7639      7642
      7642      7643      7642      7644      7642      7645      7645      7646
      7645      7647      7645      7648      7648      7649      7648      7650
      7648      7651      7651      7652      7651      7653      7651      7654
      7654      7655      7654      7656      7654      7657      7657      7658
      7657      7659      7657      7660      7608      7609      7609      7611
      7609      7610      7611      7612      7611      7613      7611      7661
      7661      7662      7661      7663      7661      7664      7664      7665
      7664      7666      7664      7667      7667      7668      7667      7669
      7667      7670      7670      7671      7670      7672      7670      7673
      7673      7674      7673      7675      7673      7676      7676      7677
      7676      7678      7676      7679      7679      7680      7679      7681
      7679      7682      7682      7683      7682      7684      7682      7685
      7685      7686      7685      7687      7685      7688      7688      7689
      7688      7690      7688      7691      7691      7692      7691      7693
      7691      7694      7694      7695      7694      7696      7694      7697
      7697      7698      7697      7699      7697      7700      7700      7701
      7700      7702      7700      7703      7719      7715      7719      7720
      7719      7721      7715      7717      7715      7716      7717      7718
      7715      7704      7704      7705      7704      7706      7719      7725
      7704      7710      7722      7725      7722      7726      7722      7723
      7722      7724      7707      7710      7707      7711      7707      7708
      7707      7709      7726      7727      7727      7728      7727      7729
      7727      7730      7730      7731      7730      7732      7730      7738
      7738      7739      7738      7740      7738      7741      7711      7712
      7712      7713      7712      7714      7712      7747      7747      7748
      7747      7749      7747      7755      7755      7756      7755      7757
      7755      7758      7732      7733      7741      7742      7749      7750
      7758      7759      7733      7734      7733      7735      7735      7736
      7735      7737      7735      7764      7764      7765      7764      7766
      7764      7767      7767      7768      7767      7769      7767      7770
      7770      7771      7770      7772      7770      7773      7773      7774
      7773      7775      7773      7776      7776      7777      7776      7778
      7776      7779      7779      7780      7779      7781      7779      7782
      7782      7783      7782      7784      7782      7785      7785      7786
      7785      7787      7785      7788      7788      7789      7788      7790
      7790      7791      7790      7792      7792      7793      7792      7794
      7792      7795      7795      7796      7795      7797      7795      7798
      7798      7799      7798      7800      7798      7801      7801      7802
      7801      7803      7801      7804      7804      7805      7804      7806
      7804      7807      7807      7808      7807      7809      7807      7810
      7742      7743      7742      7744      7744      7745      7744      7746
      7744      7811      7811      7812      7811      7813      7811      7814
      7814      7815      7814      7816      7814      7817      7817      7818
      7817      7819      7817      7820      7820      7821      7820      7822
      7820      7823      7823      7824      7823      7825      7823      7826
      7826      7827      7826      7828      7826      7829      7829      7830
      7829      7831      7829      7832      7832      7833      7832      7834
      7832      7835      7835      7836      7835      7837      7835      7838
      7838      7839      7838      7840      7838      7841      7841      7842
      7841      7843      7841      7844      7844      7845      7844      7846
      7844      7847      7847      7848      7847      7849      7847      7850
      7850      7851      7850      7852      7850      7853      7750      7751
      7750      7752      7752      7753      7752      7754      7752      7854
      7854      7855      7854      7856      7854      7857      7857      7858
      7857      7859      7857      7860      7860      7861      7860      7862
      7860      7863      7863      7864      7863      7865      7863      7866
      7866      7867      7866      7868      7866      7869      7869      7870
      7869      7871      7869      7872      7872      7873      7872      7874
      7872      7875      7875      7876      7875      7877      7875      7878
      7878      7879      7878      7880      7880      7881      7880      7882
      7882      7883      7882      7884      7882      7885      7885      7886
      7885      7887      7885      7888      7888      7889      7888      7890
      7888      7891      7891      7892      7891      7893      7891      7894
      7894      7895      7894      7896      7894      7897      7897      7898
      7897      7899      7897      7900      7759      7760      7759      7761
      7761      7762      7761      7763      7761      7901      7901      7902
      7901      7903      7901      7904      7904      7905      7904      7906
      7904      7907      7907      7908      7907      7909      7907      7910
      7910      7911      7910      7912      7910      7913      7913      7914
      7913      7915      7913      7916      7916      7917      7916      7918
      7916      7919      7919      7920      7919      7921      7919      7922
      7922      7923      7922      7924      7922      7925      7925      7926
      7925      7927      7925      7928      7928      7929      7928      7930
      7928      7931      7931      7932      7931      7933      7931      7934
      7934      7935      7934      7936      7934      7937      7937      7938
      7937      7939      7937      7940      7940      7941      7940      7942
      7940      7943      7944      7945      7944      7946      7944      7947
      7944      7948      7948      7949      7948      7950      7948      7951
      7951      7952      7951      7953      7951      7958      7958      7954
      7954      7957      7954      7955      7954      7956      7959      7960
      7959      7961      7959      7962      7959      7957      7962      7963
      7962      7970      7962      7964      7970      7971      7970      7972
      7970      7973      7964      7965      7965      7967      7965      7966
      7967      7968      7967      7969      7967      7979      7979      7980
      7979      7981      7979      7982      7982      7983      7982      7984
      7982      7985      7985      7986      7985      7987      7985      7988
      7988      7989      7988      7990      7988      7991      7991      7992
      7991      7993      7991      7994      7994      7995      7994      7996
      7994      7997      7997      7998      7997      7999      7999      8000
      7999      8001      8001      8002      8001      8003      8001      8004
      8004      8005      8004      8006      8004      8007      8007      8008
      8007      8009      8007      8010      8010      8011      8010      8012
      8010      8013      8013      8014      8013      8015      8013      8016
      8016      8017      8016      8018      8016      8019      8019      8020
      8019      8021      8019      8022      8022      8023      8022      8024
      8022      8025      7973      7974      7974      7976      7974      7975
      7976      7977      7976      7978      7976      8026      8026      8027
      8026      8028      8026      8029      8029      8030      8029      8031
      8029      8032      8032      8033      8032      8034      8032      8035
      8035      8036      8035      8037      8035      8038      8038      8039
      8038      8040      8038      8041      8041      8042      8041      8043
      8041      8044      8044      8045      8044      8046      8044      8047
      8047      8048      8047      8049      8047      8050      8050      8051
      8050      8052      8050      8053      8053      8054      8053      8055
      8053      8056      8056      8057      8056      8058      8056      8059
      8059      8060      8059      8061      8059      8062      8062      8063
      8062      8064      8062      8065      8065      8066      8065      8067
      8065      8068      8069      8070      8069      8071      8069      8072
      8069      8073      8073      8074      8073      8075      8073      8076
      8076      8077      8076      8078      8076      8083      8083      8079
      8079      8082      8079      8080      8079      8081      8084      8085
      8084      8086      8084      8087      8084      8082      8087      8088
      8087      8095      8087      8089      8095      8096      8095      8097
      8095      8098      8089      8090      8090      8092      8090      8091
      8092      8093      8092      8094      8092      8104      8104      8105
      8104      8106      8104      8107      8107      8108      8107      8109
      8107      8110      8110      8111      8110      8112      8110      8113
      8113      8114      8113      8115      8113      8116      8116      8117
      8116      8118      8116      8119      8119      8120      8119      8121
      8119      8122      8122      8123      8122      8124      8124      8125
      8124      8126      8126      8127      8126      8128      8126      8129
      8129      8130      8129      8131      8129      8132      8132      8133
      8132      8134      8132      8135      8135      8136      8135      8137
      8135      8138      8138      8139      8138      8140      8138      8141
      8141      8142      8141      8143      8141      8144      8098      8099
      8099      8101      8099      8100      8101      8102      8101      8103
      8101      8145      8145      8146      8145      8147      8145      8148
      8148      8149      8148      8150      8148      8151      8151      8152
      8151      8153      8151      8154      8154      8155      8154      8156
      8154      8157      8157      8158      8157      8159      8157      8160
      8160      8161      8160      8162      8160      8163      8163      8164
      8163      8165      8165      8166      8165      8167      8167      8168
      8167      8169      8167      8170      8170      8171      8170      8172
      8170      8173      8173      8174      8173      8175      8173      8176
      8176      8177      8176      8178      8176      8179      8179      8180
      8179      8181      8179      8182      8182      8183      8182      8184
      8182      8185      8185      8186      8185      8187      8185      8188
      8188      8189      8188      8190      8188      8191      8192      8193
      8192      8194      8192      8195      8192      8196      8196      8197
      8196      8198      8196      8199      8199      8200      8199      8201
      8199      8206      8206      8202      8202      8205      8202      8203
      8202      8204      8207      8208      8207      8209      8207      8210
      8207      8205      8210      8211      8210      8218      8210      8212
      8218      8219      8218      8220      8218      8221      8212      8213
      8213      8215      8213      8214      8215      8216      8215      8217
      8215      8227      8227      8228      8227      8229      8227      8230
      8230      8231      8230      8232      8230      8233      8233      8234
      8233      8235      8233      8236      8236      8237      8236      8238
      8236      8239      8239      8240      8239      8241      8239      8242
      8242      8243      8242      8244      8242      8245      8245      8246
      8245      8250      8245      8247      8250      8251      8250      8252
      8250      8247      8252      8253      8252      8254      8252      8255
      8255      8256      8255      8257      8255      8258      8258      8259
      8258      8260      8258      8261      8261      8262      8261      8263
      8261      8264      8264      8265      8264      8266      8264      8267
      8267      8268      8267      8269      8267      8270      8247      8248
      8247      8249      8221      8222      8222      8224      8222      8223
      8224      8225      8224      8226      8224      8271      8271      8272
      8271      8273      8271      8274      8274      8275      8274      8276
      8274      8277      8277      8278      8277      8279      8277      8280
      8280      8281      8280      8282      8280      8283      8283      8284
      8283      8285      8283      8286      8286      8287      8286      8288
      8286      8289      8289      8290      8289      8291      8289      8292
      8292      8293      8292      8294      8292      8295      8295      8296
      8295      8297      8295      8298      8298      8299      8298      8300
      8298      8301      8301      8302      8301      8303      8301      8304
      8304      8305      8304      8306      8304      8307      8307      8308
      8307      8309      8307      8310      8310      8311      8310      8312
      8310      8313      8318      8317      8317      8314      8314      8315
      8314      8316      8314      8319      8322      8321      8321      8319
      8319      8320      8319      8323      8323      8324      8323      8325
      8323      8330      8330      8326      8326      8329      8326      8327
      8326      8328      8331      8332      8331      8333      8331      8334
      8331      8329      8334      8335      8334      8342      8334      8336
      8342      8343      8342      8344      8342      8345      8336      8337
      8337      8339      8337      8338      8339      8340      8339      8341
      8339      8351      8351      8352      8351      8353      8351      8354
      8354      8355      8354      8356      8354      8357      8357      8358
      8357      8359      8357      8360      8360      8361      8360      8362
      8360      8363      8363      8364      8363      8365      8363      8366
      8366      8367      8366      8368      8366      8369      8369      8370
      8369      8371      8371      8372      8371      8373      8373      8374
      8373      8375      8373      8376      8376      8377      8376      8378
      8376      8379      8379      8380      8379      8381      8379      8382
      8382      8383      8382      8384      8382      8385      8385      8386
      8385      8387      8385      8388      8388      8389      8388      8390
      8388      8391      8345      8346      8346      8348      8346      8347
      8348      8349      8348      8350      8348      8392      8392      8393
      8392      8394      8392      8395      8395      8396      8395      8397
      8395      8398      8398      8399      8398      8400      8398      8401
      8401      8402      8401      8403      8401      8404      8404      8405
      8404      8406      8404      8407      8407      8408      8407      8409
      8407      8410      8410      8411      8410      8412      8410      8413
      8413      8414      8413      8415      8413      8416      8416      8417
      8416      8418      8416      8419      8419      8420      8419      8421
      8419      8422      8422      8423      8422      8424      8422      8425
      8425      8426      8425      8427      8425      8428      8428      8429
      8428      8430      8428      8431      8431      8432      8431      8433
      8431      8434      8435      8436      8435      8437      8435      8438
      8435      8439      8439      8440      8439      8441      8439      8442
      8442      8443      8442      8444      8442      8449      8449      8445
      8445      8448      8445      8446      8445      8447      8450      8451
      8450      8452      8450      8453      8450      8448      8453      8454
      8453      8461      8453      8455      8461      8462      8461      8463
      8461      8464      8455      8456      8456      8458      8456      8457
      8458      8459      8458      8460      8458      8470      8470      8471
      8470      8472      8470      8473      8473      8474      8473      8475
      8473      8476      8476      8477      8476      8478      8476      8479
      8479      8480      8479      8481      8479      8482      8482      8483
      8482      8484      8482      8485      8485      8486      8485      8487
      8485      8488      8488      8489      8488      8493      8488      8490
      8493      8494      8493      8495      8493      8490      8495      8496
      8495      8497      8495      8498      8498      8499      8498      8500
      8498      8501      8501      8502      8501      8503      8501      8504
      8504      8505      8504      8506      8504      8507      8507      8508
      8507      8509      8507      8510      8510      8511      8510      8512
      8510      8513      8490      8491      8490      8492      8464      8465
      8465      8467      8465      8466      8467      8468      8467      8469
      8467      8514      8514      8515      8514      8516      8514      8517
      8517      8518      8517      8519      8517      8520      8520      8521
      8520      8522      8520      8523      8523      8524      8523      8525
      8523      8526      8526      8527      8526      8528      8526      8529
      8529      8530      8529      8531      8529      8532      8532      8533
      8532      8534      8532      8535      8535      8536      8535      8537
      8535      8538      8538      8539      8538      8540      8538      8541
      8541      8542      8541      8543      8541      8544      8544      8545
      8544      8546      8544      8547      8547      8548      8547      8549
      8547      8550      8550      8551      8550      8552      8550      8553
      8553      8554      8553      8555      8553      8556      8557      8558
      8557      8559      8557      8560      8557      8561      8561      8562
      8561      8563      8561      8564      8564      8565      8564      8566
      8564      8571      8571      8567      8567      8570      8567      8568
      8567      8569      8572      8573      8572      8574      8572      8575
      8572      8570      8575      8576      8575      8583      8575      8577
      8583      8584      8583      8585      8583      8586      8577      8578
      8578      8580      8578      8579      8580      8581      8580      8582
      8580      8592      8592      8593      8592      8594      8592      8595
      8595      8596      8595      8597      8595      8598      8598      8599
      8598      8600      8598      8601      8601      8602      8601      8603
      8601      8604      8604      8605      8604      8606      8604      8607
      8607      8608      8607      8609      8607      8610      8610      8611
      8610      8615      8610      8612      8615      8616      8615      8617
      8615      8612      8617      8618      8617      8619      8617      8620
      8620      8621      8620      8622      8620      8623      8623      8624
      8623      8625      8623      8626      8626      8627      8626      8628
      8626      8629      8629      8630      8629      8631      8629      8632
      8632      8633      8632      8634      8632      8635      8612      8613
      8612      8614      8586      8587      8587      8589      8587      8588
      8589      8590      8589      8591      8589      8636      8636      8637
      8636      8638      8636      8639      8639      8640      8639      8641
      8639      8642      8642      8643      8642      8644      8642      8645
      8645      8646      8645      8647      8645      8648      8648      8649
      8648      8650      8648      8651      8651      8652      8651      8653
      8651      8654      8654      8655      8654      8656      8654      8657
      8657      8658      8657      8659      8657      8660      8660      8661
      8660      8662      8660      8663      8663      8664      8663      8665
      8663      8666      8666      8667      8666      8668      8666      8669
      8669      8670      8669      8671      8669      8672      8672      8673
      8672      8674      8672      8675      8675      8676      8675      8677
      8675      8678      8679      8680      8679      8681      8679      8682
      8679      8683      8683      8684      8683      8685      8683      8686
      8686      8687      8686      8688      8686      8693      8693      8689
      8689      8692      8689      8690      8689      8691      8694      8695
      8694      8696      8694      8697      8694      8692      8697      8698
      8697      8705      8697      8699      8705      8706      8705      8707
      8705      8708      8699      8700      8700      8702      8700      8701
      8702      8703      8702      8704      8702      8714      8714      8715
      8714      8716      8714      8717      8717      8718      8717      8719
      8717      8720      8720      8721      8720      8722      8720      8723
      8723      8724      8723      8725      8723      8726      8726      8727
      8726      8728      8726      8729      8729      8730      8729      8731
      8729      8732      8732      8733      8732      8737      8732      8734
      8737      8738      8737      8739      8737      8734      8739      8740
      8739      8741      8739      8742      8742      8743      8742      8744
      8742      8745      8745      8746      8745      8747      8745      8748
      8748      8749      8748      8750      8748      8751      8751      8752
      8751      8753      8751      8754      8754      8755      8754      8756
      8754      8757      8734      8735      8734      8736      8708      8709
      8709      8711      8709      8710      8711      8712      8711      8713
      8711      8758      8758      8759      8758      8760      8758      8761
      8761      8762      8761      8763      8761      8764      8764      8765
      8764      8766      8764      8767      8767      8768      8767      8769
      8767      8770      8770      8771      8770      8772      8770      8773
      8773      8774      8773      8775      8773      8776      8776      8777
      8776      8778      8776      8779      8779      8780      8779      8781
      8779      8782      8782      8783      8782      8784      8782      8785
      8785      8786      8785      8787      8785      8788      8788      8789
      8788      8790      8788      8791      8791      8792      8791      8793
      8791      8794      8794      8795      8794      8796      8794      8797
      8797      8798      8797      8799      8797      8800      8801      8802
      8801      8803      8801      8804      8801      8805      8805      8806
      8805      8807      8805      8808      8808      8809      8808      8810
      8808      8815      8815      8811      8811      8814      8811      8812
      8811      8813      8816      8817      8816      8818      8816      8819
      8816      8814      8819      8820      8819      8827      8819      8821
      8827      8828      8827      8829      8827      8830      8821      8822
      8822      8824      8822      8823      8824      8825      8824      8826
      8824      8836      8836      8837      8836      8838      8836      8839
      8839      8840      8839      8841      8839      8842      8842      8843
      8842      8844      8842      8845      8845      8846      8845      8847
      8845      8848      8848      8849      8848      8850      8848      8851
      8851      8852      8851      8853      8851      8854      8854      8855
      8854      8859      8854      8856      8859      8860      8859      8861
      8859      8856      8861      8862      8861      8863      8861      8864
      8864      8865      8864      8866      8864      8867      8867      8868
      8867      8869      8867      8870      8870      8871      8870      8872
      8870      8873      8873      8874      8873      8875      8873      8876
      8876      8877      8876      8878      8876      8879      8856      8857
      8856      8858      8830      8831      8831      8833      8831      8832
      8833      8834      8833      8835      8833      8880      8880      8881
      8880      8882      8880      8883      8883      8884      8883      8885
      8883      8886      8886      8887      8886      8888      8886      8889
      8889      8890      8889      8891      8889      8892      8892      8893
      8892      8894      8892      8895      8895      8896      8895      8897
      8895      8898      8898      8899      8898      8900      8898      8901
      8901      8902      8901      8903      8901      8904      8904      8905
      8904      8906      8904      8907      8907      8908      8907      8909
      8907      8910      8910      8911      8910      8912      8910      8913
      8913      8914      8913      8915      8913      8916      8916      8917
      8916      8918      8916      8919      8919      8920      8919      8921
      8919      8922      8923      8924      8923      8925      8923      8926
      8923      8927      8927      8928      8927      8929      8927      8930
      8930      8931      8930      8932      8930      8937      8937      8933
      8933      8936      8933      8934      8933      8935      8938      8939
      8938      8940      8938      8941      8938      8936      8941      8942
      8941      8949      8941      8943      8949      8950      8949      8951
      8949      8952      8943      8944      8944      8946      8944      8945
      8946      8947      8946      8948      8946      8958      8958      8959
      8958      8960      8958      8961      8961      8962      8961      8963
      8961      8964      8964      8965      8964      8966      8964      8967
      8967      8968      8967      8969      8967      8970      8970      8971
      8970      8972      8970      8973      8973      8974      8973      8975
      8973      8976      8976      8977      8976      8981      8976      8978
      8981      8982      8981      8983      8981      8978      8983      8984
      8983      8985      8983      8986      8986      8987      8986      8988
      8986      8989      8989      8990      8989      8991      8989      8992
      8992      8993      8992      8994      8992      8995      8995      8996
      8995      8997      8995      8998      8998      8999      8998      9000
      8998      9001      8978      8979      8978      8980      8952      8953
      8953      8955      8953      8954      8955      8956      8955      8957
      8955      9002      9002      9003      9002      9004      9002      9005
      9005      9006      9005      9007      9005      9008      9008      9009
      9008      9010      9008      9011      9011      9012      9011      9013
      9011      9014      9014      9015      9014      9016      9014      9017
      9017      9018      9017      9019      9017      9020      9020      9021
      9020      9022      9020      9023      9023      9024      9023      9025
      9023      9026      9026      9027      9026      9028      9026      9029
      9029      9030      9029      9031      9029      9032      9032      9033
      9032      9034      9032      9035      9035      9036      9035      9037
      9035      9038      9038      9039      9038      9040      9038      9041
      9041      9042      9041      9043      9041      9044      9049      9048
      9048      9045      9045      9046      9045      9047      9045      9050
      9053      9052      9052      9050      9050      9051      9050      9054
      9054      9055      9054      9056      9054      9061      9061      9057
      9057      9060      9057      9058      9057      9059      9062      9063
      9062      9064      9062      9065      9062      9060      9065      9066
      9065      9073      9065      9067      9073      9074      9073      9075
      9073      9076      9067      9068      9068      9070      9068      9069
      9070      9071      9070      9072      9070      9082      9082      9083
      9082      9084      9082      9085      9085      9086      9085      9087
      9085      9088      9088      9089      9088      9090      9088      9091
      9091      9092      9091      9093      9091      9094      9094      9095
      9094      9096      9094      9097      9097      9098      9097      9099
      9097      9100      9100      9101      9100      9102      9102      9103
      9102      9104      9104      9105      9104      9106      9104      9107
      9107      9108      9107      9109      9107      9110      9110      9111
      9110      9112      9110      9113      9113      9114      9113      9115
      9113      9116      9116      9117      9116      9118      9116      9119
      9119      9120      9119      9121      9119      9122      9076      9077
      9077      9079      9077      9078      9079      9080      9079      9081
      9079      9123      9123      9124      9123      9125      9123      9126
      9126      9127      9126      9128      9126      9129      9129      9130
      9129      9131      9129      9132      9132      9133      9132      9134
      9132      9135      9135      9136      9135      9137      9135      9138
      9138      9139      9138      9140      9138      9141      9141      9142
      9141      9143      9141      9144      9144      9145      9144      9146
      9144      9147      9147      9148      9147      9149      9147      9150
      9150      9151      9150      9152      9150      9153      9153      9154
      9153      9155      9153      9156      9156      9157      9156      9158
      9156      9159      9159      9160      9159      9161      9159      9162
      9162      9163      9162      9164      9162      9165      9166      9167
      9166      9168      9166      9169      9166      9170      9170      9171
      9170      9172      9170      9173      9173      9174      9173      9175
      9173      9180      9180      9176      9176      9179      9176      9177
      9176      9178      9181      9182      9181      9183      9181      9184
      9181      9179      9184      9185      9184      9192      9184      9186
      9192      9193      9192      9194      9192      9195      9186      9187
      9187      9189      9187      9188      9189      9190      9189      9191
      9189      9201      9201      9202      9201      9203      9201      9204
      9204      9205      9204      9206      9204      9207      9207      9208
      9207      9209      9207      9210      9210      9211      9210      9212
      9210      9213      9213      9214      9213      9215      9213      9216
      9216      9217      9216      9218      9216      9219      9219      9220
      9219      9221      9221      9222      9221      9223      9223      9224
      9223      9225      9223      9226      9226      9227      9226      9228
      9226      9229      9229      9230      9229      9231      9229      9232
      9232      9233      9232      9234      9232      9235      9235      9236
      9235      9237      9235      9238      9238      9239      9238      9240
      9238      9241      9241      9242      9241      9243      9241      9244
      9244      9245      9244      9246      9244      9247      9195      9196
      9196      9198      9196      9197      9198      9199      9198      9200
      9198      9248      9248      9249      9248      9250      9248      9251
      9251      9252      9251      9253      9251      9254      9254      9255
      9254      9256      9254      9257      9257      9258      9257      9259
      9257      9260      9260      9261      9260      9262      9260      9263
      9263      9264      9263      9265      9263      9266      9266      9267
      9266      9268      9266      9269      9269      9270      9269      9271
      9269      9272      9272      9273      9272      9274      9272      9275
      9275      9276      9275      9277      9275      9278      9278      9279
      9278      9280      9278      9281      9281      9282      9281      9283
      9281      9284      9284      9285      9284      9286      9284      9287
      9287      9288      9287      9289      9287      9290      9291      9292
      9291      9293      9291      9294      9291      9295      9295      9296
      9295      9297      9295      9298      9298      9299      9298      9300
      9298      9305      9305      9301      9301      9304      9301      9302
      9301      9303      9306      9307      9306      9308      9306      9309
      9306      9304      9309      9310      9309      9317      9309      9311
      9317      9318      9317      9319      9317      9320      9311      9312
      9312      9314      9312      9313      9314      9315      9314      9316
      9314      9326      9326      9327      9326      9328      9326      9329
      9329      9330      9329      9331      9329      9332      9332      9333
      9332      9334      9332      9335      9335      9336      9335      9337
      9335      9338      9338      9339      9338      9340      9338      9341
      9341      9342      9341      9343      9341      9344      9344      9345
      9344      9349      9344      9346      9349      9350      9349      9351
      9349      9346      9351      9352      9351      9353      9351      9354
      9354      9355      9354      9356      9354      9357      9357      9358
      9357      9359      9357      9360      9360      9361      9360      9362
      9360      9363      9363      9364      9363      9365      9363      9366
      9366      9367      9366      9368      9366      9369      9346      9347
      9346      9348      9320      9321      9321      9323      9321      9322
      9323      9324      9323      9325      9323      9370      9370      9371
      9370      9372      9370      9373      9373      9374      9373      9375
      9373      9376      9376      9377      9376      9378      9376      9379
      9379      9380      9379      9381      9379      9382      9382      9383
      9382      9384      9382      9385      9385      9386      9385      9387
      9385      9388      9388      9389      9388      9390      9388      9391
      9391      9392      9391      9393      9391      9394      9394      9395
      9394      9396      9394      9397      9397      9398      9397      9399
      9397      9400      9400      9401      9400      9402      9400      9403
      9403      9404      9403      9405      9403      9406      9406      9407
      9406      9408      9406      9409      9410      9411      9410      9412
      9410      9413      9410      9414      9414      9415      9414      9416
      9414      9417      9417      9418      9417      9419      9417      9424
      9424      9420      9420      9423      9420      9421      9420      9422
      9425      9426      9425      9427      9425      9428      9425      9423
      9428      9429      9428      9436      9428      9430      9436      9437
      9436      9438      9436      9439      9430      9431      9431      9433
      9431      9432      9433      9434      9433      9435      9433      9445
      9445      9446      9445      9447      9445      9448      9448      9449
      9448      9450      9448      9451      9451      9452      9451      9453
      9451      9454      9454      9455      9454      9456      9454      9457
      9457      9458      9457      9459      9457      9460      9460      9461
      9460      9462      9460      9463      9463      9464      9463      9468
      9463      9465      9468      9469      9468      9470      9468      9465
      9470      9471      9470      9472      9470      9473      9473      9474
      9473      9475      9473      9476      9476      9477      9476      9478
      9476      9479      9479      9480      9479      9481      9479      9482
      9482      9483      9482      9484      9482      9485      9485      9486
      9485      9487      9485      9488      9465      9466      9465      9467
      9439      9440      9440      9442      9440      9441      9442      9443
      9442      9444      9442      9489      9489      9490      9489      9491
      9489      9492      9492      9493      9492      9494      9492      9495
      9495      9496      9495      9497      9495      9498      9498      9499
      9498      9500      9498      9501      9501      9502      9501      9503
      9501      9504      9504      9505      9504      9506      9504      9507
      9507      9508      9507      9509      9507      9510      9510      9511
      9510      9512      9510      9513      9513      9514      9513      9515
      9513      9516      9516      9517      9516      9518      9516      9519
      9519      9520      9519      9521      9519      9522      9522      9523
      9522      9524      9522      9525      9525      9526      9525      9527
      9525      9528      9528      9529      9528      9530      9528      9531
      9532      9533      9532      9534      9532      9535      9532      9536
      9536      9537      9536      9538      9536      9539      9539      9540
      9539      9541      9539      9546      9546      9542      9542      9545
      9542      9543      9542      9544      9547      9548      9547      9549
      9547      9550      9547      9545      9550      9551      9550      9558
      9550      9552      9558      9559      9558      9560      9558      9561
      9552      9553      9553      9555      9553      9554      9555      9556
      9555      9557      9555      9567      9567      9568      9567      9569
      9567      9570      9570      9571      9570      9572      9570      9573
      9573      9574      9573      9575      9573      9576      9576      9577
      9576      9578      9576      9579      9579      9580      9579      9581
      9579      9582      9582      9583      9582      9584      9582      9585
      9585      9586      9585      9587      9587      9588      9587      9589
      9589      9590      9589      9591      9589      9592      9592      9593
      9592      9594      9592      9595      9595      9596      9595      9597
      9595      9598      9598      9599      9598      9600      9598      9601
      9601      9602      9601      9603      9601      9604      9604      9605
      9604      9606      9604      9607      9607      9608      9607      9609
      9607      9610      9610      9611      9610      9612      9610      9613
      9561      9562      9562      9564      9562      9563      9564      9565
      9564      9566      9564      9614      9614      9615      9614      9616
      9614      9617      9617      9618      9617      9619      9617      9620
      9620      9621      9620      9622      9620      9623      9623      9624
      9623      9625      9623      9626      9626      9627      9626      9628
      9626      9629      9629      9630      9629      9631      9629      9632
      9632      9633      9632      9634      9632      9635      9635      9636
      9635      9637      9635      9638      9638      9639      9638      9640
      9638      9641      9641      9642      9641      9643      9641      9644
      9644      9645      9644      9646      9644      9647      9647      9648
      9647      9649      9647      9650      9650      9651      9650      9652
      9650      9653      9653      9654      9653      9655      9653      9656
      9657      9658      9657      9659      9657      9660      9657      9661
      9661      9662      9661      9663      9661      9664      9664      9665
      9664      9666      9664      9671      9671      9667      9667      9670
      9667      9668      9667      9669      9672      9673      9672      9674
      9672      9675      9672      9670      9675      9676      9675      9683
      9675      9677      9683      9684      9683      9685      9683      9686
      9677      9678      9678      9680      9678      9679      9680      9681
      9680      9682      9680      9692      9692      9693      9692      9694
      9692      9695      9695      9696      9695      9697      9695      9698
      9698      9699      9698      9700      9698      9701      9701      9702
      9701      9703      9701      9704      9704      9705      9704      9706
      9704      9707      9707      9708      9707      9709      9707      9710
      9710      9711      9710      9715      9710      9712      9715      9716
      9715      9717      9715      9712      9717      9718      9717      9719
      9717      9720      9720      9721      9720      9722      9720      9723
      9723      9724      9723      9725      9723      9726      9726      9727
      9726      9728      9726      9729      9729      9730      9729      9731
      9729      9732      9732      9733      9732      9734      9732      9735
      9712      9713      9712      9714      9686      9687      9687      9689
      9687      9688      9689      9690      9689      9691      9689      9736
      9736      9737      9736      9738      9736      9739      9739      9740
      9739      9741      9739      9742      9742      9743      9742      9744
      9742      9745      9745      9746      9745      9747      9745      9748
      9748      9749      9748      9750      9748      9751      9751      9752
      9751      9753      9751      9754      9754      9755      9754      9756
      9754      9757      9757      9758      9757      9759      9757      9760
      9760      9761      9760      9762      9760      9763      9763      9764
      9763      9765      9763      9766      9766      9767      9766      9768
      9766      9769      9769      9770      9769      9771      9769      9772
      9772      9773      9772      9774      9772      9775      9776      9777
      9776      9778      9776      9779      9776      9780      9780      9781
      9780      9782      9780      9783      9783      9784      9783      9785
      9783      9790      9790      9786      9786      9789      9786      9787
      9786      9788      9791      9792      9791      9793      9791      9794
      9791      9789      9794      9795      9794      9802      9794      9796
      9802      9803      9802      9804      9802      9805      9796      9797
      9797      9799      9797      9798      9799      9800      9799      9801
      9799      9811      9811      9812      9811      9813      9811      9814
      9814      9815      9814      9816      9814      9817      9817      9818
      9817      9819      9817      9820      9820      9821      9820      9822
      9820      9823      9823      9824      9823      9825      9823      9826
      9826      9827      9826      9828      9826      9829      9829      9830
      9829      9834      9829      9831      9834      9835      9834      9836
      9834      9831      9836      9837      9836      9838      9836      9839
      9839      9840      9839      9841      9839      9842      9842      9843
      9842      9844      9842      9845      9845      9846      9845      9847
      9845      9848      9848      9849      9848      9850      9848      9851
      9851      9852      9851      9853      9851      9854      9831      9832
      9831      9833      9805      9806      9806      9808      9806      9807
      9808      9809      9808      9810      9808      9855      9855      9856
      9855      9857      9855      9858      9858      9859      9858      9860
      9858      9861      9861      9862      9861      9863      9861      9864
      9864      9865      9864      9866      9864      9867      9867      9868
      9867      9869      9867      9870      9870      9871      9870      9872
      9870      9873      9873      9874      9873      9875      9873      9876
      9876      9877      9876      9878      9876      9879      9879      9880
      9879      9881      9879      9882      9882      9883      9882      9884
      9882      9885      9885      9886      9885      9887      9885      9888
      9888      9889      9888      9890      9888      9891      9891      9892
      9891      9893      9891      9894      9894      9895      9894      9896
      9894      9897      9898      9899      9898      9900      9898      9901
      9898      9902      9902      9903      9902      9904      9902      9905
      9905      9906      9905      9907      9905      9912      9912      9908
      9908      9911      9908      9909      9908      9910      9913      9914
      9913      9915      9913      9916      9913      9911      9916      9917
      9916      9924      9916      9918      9924      9925      9924      9926
      9924      9927      9918      9919      9919      9921      9919      9920
      9921      9922      9921      9923      9921      9933      9933      9934
      9933      9935      9933      9936      9936      9937      9936      9938
      9936      9939      9939      9940      9939      9941      9939      9942
      9942      9943      9942      9944      9942      9945      9945      9946
      9945      9947      9945      9948      9948      9949      9948      9950
      9948      9951      9951      9952      9951      9956      9951      9953
      9956      9957      9956      9958      9956      9953      9958      9959
      9958      9960      9958      9961      9961      9962      9961      9963
      9961      9964      9964      9965      9964      9966      9964      9967
      9967      9968      9967      9969      9967      9970      9970      9971
      9970      9972      9970      9973      9973      9974      9973      9975
      9973      9976      9953      9954      9953      9955      9927      9928
      9928      9930      9928      9929      9930      9931      9930      9932
      9930      9977      9977      9978      9977      9979      9977      9980
      9980      9981      9980      9982      9980      9983      9983      9984
      9983      9985      9983      9986      9986      9987      9986      9988
      9986      9989      9989      9990      9989      9991      9989      9992
      9992      9993      9992      9994      9992      9995      9995      9996
      9995      9997      9995      9998      9998      9999      9998     10000
      9998     10001     10001     10002     10001     10003     10001     10004
     10004     10005     10004     10006     10004     10007     10007     10008
     10007     10009     10007     10010     10010     10011     10010     10012
     10010     10013     10013     10014     10013     10015     10013     10016
     10017     10018     10017     10019     10017     10020     10017     10021
     10021     10022     10021     10023     10021     10024     10024     10025
     10024     10026     10024     10031     10031     10027     10027     10030
     10027     10028     10027     10029     10032     10033     10032     10034
     10032     10035     10032     10030     10035     10036     10035     10043
     10035     10037     10043     10044     10043     10045     10043     10046
     10037     10038     10038     10040     10038     10039     10040     10041
     10040     10042     10040     10052     10052     10053     10052     10054
     10052     10055     10055     10056     10055     10057     10055     10058
     10058     10059     10058     10060     10058     10061     10061     10062
     10061     10063     10061     10064     10064     10065     10064     10066
     10064     10067     10067     10068     10067     10069     10067     10070
     10070     10071     10070     10075     10070     10072     10075     10076
     10075     10077     10075     10072     10077     10078     10077     10079
     10077     10080     10080     10081     10080     10082     10080     10083
     10083     10084     10083     10085     10083     10086     10086     10087
     10086     10088     10086     10089     10089     10090     10089     10091
     10089     10092     10092     10093     10092     10094     10092     10095
     10072     10073     10072     10074     10046     10047     10047     10049
     10047     10048     10049     10050     10049     10051     10049     10096
     10096     10097     10096     10098     10096     10099     10099     10100
     10099     10101     10099     10102     10102     10103     10102     10104
     10102     10105     10105     10106     10105     10107     10105     10108
     10108     10109     10108     10110     10108     10111     10111     10112
     10111     10113     10111     10114     10114     10115     10114     10116
     10114     10117     10117     10118     10117     10119     10117     10120
     10120     10121     10120     10122     10120     10123     10123     10124
     10123     10125     10123     10126     10126     10127     10126     10128
     10126     10129     10129     10130     10129     10131     10129     10132
     10132     10133     10132     10134     10132     10135     10135     10136
     10135     10137     10135     10138     10139     10140     10139     10141
     10139     10142     10139     10143     10143     10144     10143     10145
     10143     10146     10146     10147     10146     10148     10146     10153
     10153     10149     10149     10152     10149     10150     10149     10151
     10154     10155     10154     10156     10154     10157     10154     10152
     10157     10158     10157     10165     10157     10159     10165     10166
     10165     10167     10165     10168     10159     10160     10160     10162
     10160     10161     10162     10163     10162     10164     10162     10174
     10174     10175     10174     10176     10174     10177     10177     10178
     10177     10179     10177     10180     10180     10181     10180     10182
     10180     10183     10183     10184     10183     10185     10183     10186
     10186     10187     10186     10188     10186     10189     10189     10190
     10189     10191     10189     10192     10192     10193     10192     10197
     10192     10194     10197     10198     10197     10199     10197     10194
     10199     10200     10199     10201     10199     10202     10202     10203
     10202     10204     10202     10205     10205     10206     10205     10207
     10205     10208     10208     10209     10208     10210     10208     10211
     10211     10212     10211     10213     10211     10214     10214     10215
     10214     10216     10214     10217     10194     10195     10194     10196
     10168     10169     10169     10171     10169     10170     10171     10172
     10171     10173     10171     10218     10218     10219     10218     10220
     10218     10221     10221     10222     10221     10223     10221     10224
     10224     10225     10224     10226     10224     10227     10227     10228
     10227     10229     10227     10230     10230     10231     10230     10232
     10230     10233     10233     10234     10233     10235     10233     10236
     10236     10237     10236     10238     10236     10239     10239     10240
     10239     10241     10239     10242     10242     10243     10242     10244
     10242     10245     10245     10246     10245     10247     10245     10248
     10248     10249     10248     10250     10248     10251     10251     10252
     10251     10253     10251     10254     10254     10255     10254     10256
     10254     10257     10258     10259     10258     10260     10258     10261
     10258     10262     10262     10263     10262     10264     10262     10265
     10265     10266     10265     10267     10265     10272     10272     10268
     10268     10271     10268     10269     10268     10270     10273     10274
     10273     10275     10273     10276     10273     10271     10276     10277
     10276     10284     10276     10278     10284     10285     10284     10286
     10284     10287     10278     10279     10279     10281     10279     10280
     10281     10282     10281     10283     10281     10293     10293     10294
     10293     10295     10293     10296     10296     10297     10296     10298
     10296     10299     10299     10300     10299     10301     10299     10302
     10302     10303     10302     10304     10302     10305     10305     10306
     10305     10307     10305     10308     10308     10309     10308     10310
     10308     10311     10311     10312     10311     10313     10313     10314
     10313     10315     10315     10316     10315     10317     10315     10318
     10318     10319     10318     10320     10318     10321     10321     10322
     10321     10323     10321     10324     10324     10325     10324     10326
     10324     10327     10327     10328     10327     10329     10327     10330
     10330     10331     10330     10332     10330     10333     10333     10334
     10333     10335     10333     10336     10336     10337     10336     10338
     10336     10339     10287     10288     10288     10290     10288     10289
     10290     10291     10290     10292     10290     10340     10340     10341
     10340     10342     10340     10343     10343     10344     10343     10345
     10343     10346     10346     10347     10346     10348     10346     10349
     10349     10350     10349     10351     10349     10352     10352     10353
     10352     10354     10352     10355     10355     10356     10355     10357
     10355     10358     10358     10359     10358     10360     10358     10361
     10361     10362     10361     10363     10361     10364     10364     10365
     10364     10366     10364     10367     10367     10368     10367     10369
     10367     10370     10370     10371     10370     10372     10370     10373
     10373     10374     10373     10375     10373     10376     10376     10377
     10376     10378     10376     10379     10379     10380     10379     10381
     10379     10382     10383     10384     10383     10385     10383     10386
     10383     10387     10387     10388     10387     10389     10387     10390
     10390     10391     10390     10392     10390     10397     10397     10393
     10393     10396     10393     10394     10393     10395     10398     10399
     10398     10400     10398     10401     10398     10396     10401     10402
     10401     10409     10401     10403     10409     10410     10409     10411
     10409     10412     10403     10404     10404     10406     10404     10405
     10406     10407     10406     10408     10406     10418     10418     10419
     10418     10420     10418     10421     10421     10422     10421     10423
     10421     10424     10424     10425     10424     10426     10424     10427
     10427     10428     10427     10429     10427     10430     10430     10431
     10430     10432     10430     10433     10433     10434     10433     10435
     10433     10436     10436     10437     10436     10438     10438     10439
     10438     10440     10440     10441     10440     10442     10440     10443
     10443     10444     10443     10445     10443     10446     10446     10447
     10446     10448     10446     10449     10449     10450     10449     10451
     10449     10452     10452     10453     10452     10454     10452     10455
     10455     10456     10455     10457     10455     10458     10458     10459
     10458     10460     10458     10461     10461     10462     10461     10463
     10461     10464     10412     10413     10413     10415     10413     10414
     10415     10416     10415     10417     10415     10465     10465     10466
     10465     10467     10465     10468     10468     10469     10468     10470
     10468     10471     10471     10472     10471     10473     10471     10474
     10474     10475     10474     10476     10474     10477     10477     10478
     10477     10479     10477     10480     10480     10481     10480     10482
     10480     10483     10483     10484     10483     10485     10483     10486
     10486     10487     10486     10488     10486     10489     10489     10490
     10489     10491     10489     10492     10492     10493     10492     10494
     10492     10495     10495     10496     10495     10497     10495     10498
     10498     10499     10498     10500     10498     10501     10501     10502
     10501     10503     10501     10504     10504     10505     10504     10506
     10504     10507     10508     10509     10508     10510     10508     10511
     10508     10512     10512     10513     10512     10514     10512     10515
     10515     10516     10515     10517     10515     10522     10522     10518
     10518     10521     10518     10519     10518     10520     10523     10524
     10523     10525     10523     10526     10523     10521     10526     10527
     10526     10534     10526     10528     10534     10535     10534     10536
     10534     10537     10528     10529     10529     10531     10529     10530
     10531     10532     10531     10533     10531     10543     10543     10544
     10543     10545     10543     10546     10546     10547     10546     10548
     10546     10549     10549     10550     10549     10551     10549     10552
     10552     10553     10552     10554     10552     10555     10555     10556
     10555     10557     10555     10558     10558     10559     10558     10560
     10558     10561     10561     10562     10561     10566     10561     10563
     10566     10567     10566     10568     10566     10563     10568     10569
     10568     10570     10568     10571     10571     10572     10571     10573
     10571     10574     10574     10575     10574     10576     10574     10577
     10577     10578     10577     10579     10577     10580     10580     10581
     10580     10582     10580     10583     10583     10584     10583     10585
     10583     10586     10563     10564     10563     10565     10537     10538
     10538     10540     10538     10539     10540     10541     10540     10542
     10540     10587     10587     10588     10587     10589     10587     10590
     10590     10591     10590     10592     10590     10593     10593     10594
     10593     10595     10593     10596     10596     10597     10596     10598
     10596     10599     10599     10600     10599     10601     10599     10602
     10602     10603     10602     10604     10602     10605     10605     10606
     10605     10607     10605     10608     10608     10609     10608     10610
     10608     10611     10611     10612     10611     10613     10611     10614
     10614     10615     10614     10616     10614     10617     10617     10618
     10617     10619     10617     10620     10620     10621     10620     10622
     10620     10623     10623     10624     10623     10625     10623     10626
     10627     10628     10627     10629     10627     10630     10627     10631
     10631     10632     10631     10633     10631     10634     10634     10635
     10634     10636     10634     10641     10641     10637     10637     10640
     10637     10638     10637     10639     10642     10643     10642     10644
     10642     10645     10642     10640     10645     10646     10645     10653
     10645     10647     10653     10654     10653     10655     10653     10656
     10647     10648     10648     10650     10648     10649     10650     10651
     10650     10652     10650     10662     10662     10663     10662     10664
     10662     10665     10665     10666     10665     10667     10665     10668
     10668     10669     10668     10670     10668     10671     10671     10672
     10671     10673     10671     10674     10674     10675     10674     10676
     10674     10677     10677     10678     10677     10679     10677     10680
     10680     10681     10680     10685     10680     10682     10685     10686
     10685     10687     10685     10682     10687     10688     10687     10689
     10687     10690     10690     10691     10690     10692     10690     10693
     10693     10694     10693     10695     10693     10696     10696     10697
     10696     10698     10696     10699     10699     10700     10699     10701
     10699     10702     10702     10703     10702     10704     10702     10705
     10682     10683     10682     10684     10656     10657     10657     10659
     10657     10658     10659     10660     10659     10661     10659     10706
     10706     10707     10706     10708     10706     10709     10709     10710
     10709     10711     10709     10712     10712     10713     10712     10714
     10712     10715     10715     10716     10715     10717     10715     10718
     10718     10719     10718     10720     10718     10721     10721     10722
     10721     10723     10721     10724     10724     10725     10724     10726
     10724     10727     10727     10728     10727     10729     10727     10730
     10730     10731     10730     10732     10730     10733     10733     10734
     10733     10735     10733     10736     10736     10737     10736     10738
     10736     10739     10739     10740     10739     10741     10739     10742
     10742     10743     10742     10744     10742     10745     10745     10746
     10745     10747     10745     10748     10749     10750     10749     10751
     10749     10752     10749     10753     10753     10754     10753     10755
     10753     10756     10756     10757     10756     10758     10756     10763
     10763     10759     10759     10762     10759     10760     10759     10761
     10764     10765     10764     10766     10764     10767     10764     10762
     10767     10768     10767     10775     10767     10769     10775     10776
     10775     10777     10775     10778     10769     10770     10770     10772
     10770     10771     10772     10773     10772     10774     10772     10784
     10784     10785     10784     10786     10784     10787     10787     10788
     10787     10789     10787     10790     10790     10791     10790     10792
     10790     10793     10793     10794     10793     10795     10793     10796
     10796     10797     10796     10798     10796     10799     10799     10800
     10799     10801     10799     10802     10802     10803     10802     10807
     10802     10804     10807     10808     10807     10809     10807     10804
     10809     10810     10809     10811     10809     10812     10812     10813
     10812     10814     10812     10815     10815     10816     10815     10817
     10815     10818     10818     10819     10818     10820     10818     10821
     10821     10822     10821     10823     10821     10824     10824     10825
     10824     10826     10824     10827     10804     10805     10804     10806
     10778     10779     10779     10781     10779     10780     10781     10782
     10781     10783     10781     10828     10828     10829     10828     10830
     10828     10831     10831     10832     10831     10833     10831     10834
     10834     10835     10834     10836     10834     10837     10837     10838
     10837     10839     10837     10840     10840     10841     10840     10842
     10840     10843     10843     10844     10843     10845     10843     10846
     10846     10847     10846     10848     10846     10849     10849     10850
     10849     10851     10849     10852     10852     10853     10852     10854
     10852     10855     10855     10856     10855     10857     10855     10858
     10858     10859     10858     10860     10858     10861     10861     10862
     10861     10863     10861     10864     10864     10865     10864     10866
     10864     10867     10867     10868     10867     10869     10867     10870
     10871     10872     10871     10873     10871     10874     10871     10875
     10875     10876     10875     10877     10875     10878     10878     10879
     10878     10880     10878     10885     10885     10881     10881     10884
     10881     10882     10881     10883     10886     10887     10886     10888
     10886     10889     10886     10884     10889     10890     10889     10897
     10889     10891     10897     10898     10897     10899     10897     10900
     10891     10892     10892     10894     10892     10893     10894     10895
     10894     10896     10894     10906     10906     10907     10906     10908
     10906     10909     10909     10910     10909     10911     10909     10912
     10912     10913     10912     10914     10912     10915     10915     10916
     10915     10917     10915     10918     10918     10919     10918     10920
     10918     10921     10921     10922     10921     10923     10921     10924
     10924     10925     10924     10929     10924     10926     10929     10930
     10929     10931     10929     10926     10931     10932     10931     10933
     10931     10934     10934     10935     10934     10936     10934     10937
     10937     10938     10937     10939     10937     10940     10940     10941
     10940     10942     10940     10943     10943     10944     10943     10945
     10943     10946     10946     10947     10946     10948     10946     10949
     10926     10927     10926     10928     10900     10901     10901     10903
     10901     10902     10903     10904     10903     10905     10903     10950
     10950     10951     10950     10952     10950     10953     10953     10954
     10953     10955     10953     10956     10956     10957     10956     10958
     10956     10959     10959     10960     10959     10961     10959     10962
     10962     10963     10962     10964     10962     10965     10965     10966
     10965     10967     10965     10968     10968     10969     10968     10970
     10968     10971     10971     10972     10971     10973     10971     10974
     10974     10975     10974     10976     10974     10977     10977     10978
     10977     10979     10977     10980     10980     10981     10980     10982
     10980     10983     10983     10984     10983     10985     10983     10986
     10986     10987     10986     10988     10986     10989     10989     10990
     10989     10991     10989     10992     11008     11004     11008     11009
     11008     11010     11004     11006     11004     11005     11006     11007
     11004     10993     10993     10994     10993     10995     11008     11014
     10993     10999     11011     11014     11011     11015     11011     11012
     11011     11013     10996     10999     10996     11000     10996     10997
     10996     10998     11015     11016     11016     11017     11016     11018
     11016     11019     11019     11020     11019     11021     11019     11027
     11027     11028     11027     11029     11027     11030     11000     11001
     11001     11002     11001     11003     11001     11036     11036     11037
     11036     11038     11036     11044     11044     11045     11044     11046
     11044     11047     11021     11022     11030     11031     11038     11039
     11047     11048     11022     11023     11022     11024     11024     11025
     11024     11026     11024     11053     11053     11054     11053     11055
     11053     11056     11056     11057     11056     11058     11056     11059
     11059     11060     11059     11061     11059     11062     11062     11063
     11062     11064     11062     11065     11065     11066     11065     11067
     11065     11068     11068     11069     11068     11070     11068     11071
     11071     11072     11071     11073     11071     11074     11074     11075
     11074     11076     11074     11077     11077     11078     11077     11079
     11079     11080     11079     11081     11081     11082     11081     11083
     11081     11084     11084     11085     11084     11086     11084     11087
     11087     11088     11087     11089     11087     11090     11090     11091
     11090     11092     11090     11093     11093     11094     11093     11095
     11093     11096     11096     11097     11096     11098     11096     11099
     11031     11032     11031     11033     11033     11034     11033     11035
     11033     11100     11100     11101     11100     11102     11100     11103
     11103     11104     11103     11105     11103     11106     11106     11107
     11106     11108     11106     11109     11109     11110     11109     11111
     11109     11112     11112     11113     11112     11114     11112     11115
     11115     11116     11115     11117     11115     11118     11118     11119
     11118     11120     11118     11121     11121     11122     11121     11123
     11121     11124     11124     11125     11124     11126     11124     11127
     11127     11128     11127     11129     11127     11130     11130     11131
     11130     11132     11130     11133     11133     11134     11133     11135
     11133     11136     11136     11137     11136     11138     11136     11139
     11139     11140     11139     11141     11139     11142     11039     11040
     11039     11041     11041     11042     11041     11043     11041     11143
     11143     11144     11143     11145     11143     11146     11146     11147
     11146     11148     11146     11149     11149     11150     11149     11151
     11149     11152     11152     11153     11152     11154     11152     11155
     11155     11156     11155     11157     11155     11158     11158     11159
     11158     11160     11158     11161     11161     11162     11161     11163
     11161     11164     11164     11165     11164     11166     11164     11167
     11167     11168     11167     11169     11169     11170     11169     11171
     11171     11172     11171     11173     11171     11174     11174     11175
     11174     11176     11174     11177     11177     11178     11177     11179
     11177     11180     11180     11181     11180     11182     11180     11183
     11183     11184     11183     11185     11183     11186     11186     11187
     11186     11188     11186     11189     11048     11049     11048     11050
     11050     11051     11050     11052     11050     11190     11190     11191
     11190     11192     11190     11193     11193     11194     11193     11195
     11193     11196     11196     11197     11196     11198     11196     11199
     11199     11200     11199     11201     11199     11202     11202     11203
     11202     11204     11202     11205     11205     11206     11205     11207
     11205     11208     11208     11209     11208     11210     11208     11211
     11211     11212     11211     11213     11211     11214     11214     11215
     11214     11216     11214     11217     11217     11218     11217     11219
     11217     11220     11220     11221     11220     11222     11220     11223
     11223     11224     11223     11225     11223     11226     11226     11227
     11226     11228     11226     11229     11229     11230     11229     11231
     11229     11232     11233     11234     11233     11235     11233     11236
     11233     11237     11237     11238     11237     11239     11237     11240
     11240     11241     11240     11242     11240     11247     11247     11243
     11243     11246     11243     11244     11243     11245     11248     11249
     11248     11250     11248     11251     11248     11246     11251     11252
     11251     11259     11251     11253     11259     11260     11259     11261
     11259     11262     11253     11254     11254     11256     11254     11255
     11256     11257     11256     11258     11256     11268     11268     11269
     11268     11270     11268     11271     11271     11272     11271     11273
     11271     11274     11274     11275     11274     11276     11274     11277
     11277     11278     11277     11279     11277     11280     11280     11281
     11280     11282     11280     11283     11283     11284     11283     11285
     11283     11286     11286     11287     11286     11291     11286     11288
     11291     11292     11291     11293     11291     11288     11293     11294
     11293     11295     11293     11296     11296     11297     11296     11298
     11296     11299     11299     11300     11299     11301     11299     11302
     11302     11303     11302     11304     11302     11305     11305     11306
     11305     11307     11305     11308     11308     11309     11308     11310
     11308     11311     11288     11289     11288     11290     11262     11263
     11263     11265     11263     11264     11265     11266     11265     11267
     11265     11312     11312     11313     11312     11314     11312     11315
     11315     11316     11315     11317     11315     11318     11318     11319
     11318     11320     11318     11321     11321     11322     11321     11323
     11321     11324     11324     11325     11324     11326     11324     11327
     11327     11328     11327     11329     11327     11330     11330     11331
     11330     11332     11330     11333     11333     11334     11333     11335
     11333     11336     11336     11337     11336     11338     11336     11339
     11339     11340     11339     11341     11339     11342     11342     11343
     11342     11344     11342     11345     11345     11346     11345     11347
     11345     11348     11348     11349     11348     11350     11348     11351
     11351     11352     11351     11353     11351     11354     11355     11356
     11355     11357     11355     11358     11355     11359     11359     11360
     11359     11361     11359     11362     11362     11363     11362     11364
     11362     11369     11369     11365     11365     11368     11365     11366
     11365     11367     11370     11371     11370     11372     11370     11373
     11370     11368     11373     11374     11373     11381     11373     11375
     11381     11382     11381     11383     11381     11384     11375     11376
     11376     11378     11376     11377     11378     11379     11378     11380
     11378     11390     11390     11391     11390     11392     11390     11393
     11393     11394     11393     11395     11393     11396     11396     11397
     11396     11398     11396     11399     11399     11400     11399     11401
     11399     11402     11402     11403     11402     11404     11402     11405
     11405     11406     11405     11407     11405     11408     11408     11409
     11408     11413     11408     11410     11413     11414     11413     11415
     11413     11410     11415     11416     11415     11417     11415     11418
     11418     11419     11418     11420     11418     11421     11421     11422
     11421     11423     11421     11424     11424     11425     11424     11426
     11424     11427     11427     11428     11427     11429     11427     11430
     11430     11431     11430     11432     11430     11433     11410     11411
     11410     11412     11384     11385     11385     11387     11385     11386
     11387     11388     11387     11389     11387     11434     11434     11435
     11434     11436     11434     11437     11437     11438     11437     11439
     11437     11440     11440     11441     11440     11442     11440     11443
     11443     11444     11443     11445     11443     11446     11446     11447
     11446     11448     11446     11449     11449     11450     11449     11451
     11449     11452     11452     11453     11452     11454     11452     11455
     11455     11456     11455     11457     11455     11458     11458     11459
     11458     11460     11458     11461     11461     11462     11461     11463
     11461     11464     11464     11465     11464     11466     11464     11467
     11467     11468     11467     11469     11467     11470     11470     11471
     11470     11472     11470     11473     11473     11474     11473     11475
     11473     11476     11477     11478     11477     11479     11477     11480
     11477     11481     11481     11482     11481     11483     11481     11484
     11484     11485     11484     11486     11484     11491     11491     11487
     11487     11490     11487     11488     11487     11489     11492     11493
     11492     11494     11492     11495     11492     11490     11495     11496
     11495     11503     11495     11497     11503     11504     11503     11505
     11503     11506     11497     11498     11498     11500     11498     11499
     11500     11501     11500     11502     11500     11512     11512     11513
     11512     11514     11512     11515     11515     11516     11515     11517
     11515     11518     11518     11519     11518     11520     11518     11521
     11521     11522     11521     11523     11521     11524     11524     11525
     11524     11526     11524     11527     11527     11528     11527     11529
     11527     11530     11530     11531     11530     11535     11530     11532
     11535     11536     11535     11537     11535     11532     11537     11538
     11537     11539     11537     11540     11540     11541     11540     11542
     11540     11543     11543     11544     11543     11545     11543     11546
     11546     11547     11546     11548     11546     11549     11549     11550
     11549     11551     11549     11552     11552     11553     11552     11554
     11552     11555     11532     11533     11532     11534     11506     11507
     11507     11509     11507     11508     11509     11510     11509     11511
     11509     11556     11556     11557     11556     11558     11556     11559
     11559     11560     11559     11561     11559     11562     11562     11563
     11562     11564     11562     11565     11565     11566     11565     11567
     11565     11568     11568     11569     11568     11570     11568     11571
     11571     11572     11571     11573     11571     11574     11574     11575
     11574     11576     11574     11577     11577     11578     11577     11579
     11577     11580     11580     11581     11580     11582     11580     11583
     11583     11584     11583     11585     11583     11586     11586     11587
     11586     11588     11586     11589     11589     11590     11589     11591
     11589     11592     11592     11593     11592     11594     11592     11595
     11595     11596     11595     11597     11595     11598     11599     11600
     11599     11601     11599     11602     11599     11603     11603     11604
     11603     11605     11603     11606     11606     11607     11606     11608
     11606     11613     11613     11609     11609     11612     11609     11610
     11609     11611     11614     11615     11614     11616     11614     11617
     11614     11612     11617     11618     11617     11625     11617     11619
     11625     11626     11625     11627     11625     11628     11619     11620
     11620     11622     11620     11621     11622     11623     11622     11624
     11622     11634     11634     11635     11634     11636     11634     11637
     11637     11638     11637     11639     11637     11640     11640     11641
     11640     11642     11640     11643     11643     11644     11643     11645
     11643     11646     11646     11647     11646     11648     11646     11649
     11649     11650     11649     11651     11649     11652     11652     11653
     11652     11654     11654     11655     11654     11656     11656     11657
     11656     11658     11656     11659     11659     11660     11659     11661
     11659     11662     11662     11663     11662     11664     11662     11665
     11665     11666     11665     11667     11665     11668     11668     11669
     11668     11670     11668     11671     11671     11672     11671     11673
     11671     11674     11674     11675     11674     11676     11674     11677
     11677     11678     11677     11679     11677     11680     11628     11629
     11629     11631     11629     11630     11631     11632     11631     11633
     11631     11681     11681     11682     11681     11683     11681     11684
     11684     11685     11684     11686     11684     11687     11687     11688
     11687     11689     11687     11690     11690     11691     11690     11692
     11690     11693     11693     11694     11693     11695     11693     11696
     11696     11697     11696     11698     11696     11699     11699     11700
     11699     11701     11699     11702     11702     11703     11702     11704
     11702     11705     11705     11706     11705     11707     11705     11708
     11708     11709     11708     11710     11708     11711     11711     11712
     11711     11713     11711     11714     11714     11715     11714     11716
     11714     11717     11717     11718     11717     11719     11717     11720
     11720     11721     11720     11722     11720     11723     11724     11725
     11724     11726     11724     11727     11724     11728     11728     11729
     11728     11730     11728     11731     11731     11732     11731     11733
     11731     11738     11738     11734     11734     11737     11734     11735
     11734     11736     11739     11740     11739     11741     11739     11742
     11739     11737     11742     11743     11742     11750     11742     11744
     11750     11751     11750     11752     11750     11753     11744     11745
     11745     11747     11745     11746     11747     11748     11747     11749
     11747     11759     11759     11760     11759     11761     11759     11762
     11762     11763     11762     11764     11762     11765     11765     11766
     11765     11767     11765     11768     11768     11769     11768     11770
     11768     11771     11771     11772     11771     11773     11771     11774
     11774     11775     11774     11776     11774     11777     11777     11778
     11777     11782     11777     11779     11782     11783     11782     11784
     11782     11779     11784     11785     11784     11786     11784     11787
     11787     11788     11787     11789     11787     11790     11790     11791
     11790     11792     11790     11793     11793     11794     11793     11795
     11793     11796     11796     11797     11796     11798     11796     11799
     11799     11800     11799     11801     11799     11802     11779     11780
     11779     11781     11753     11754     11754     11756     11754     11755
     11756     11757     11756     11758     11756     11803     11803     11804
     11803     11805     11803     11806     11806     11807     11806     11808
     11806     11809     11809     11810     11809     11811     11809     11812
     11812     11813     11812     11814     11812     11815     11815     11816
     11815     11817     11815     11818     11818     11819     11818     11820
     11818     11821     11821     11822     11821     11823     11821     11824
     11824     11825     11824     11826     11824     11827     11827     11828
     11827     11829     11827     11830     11830     11831     11830     11832
     11830     11833     11833     11834     11833     11835     11833     11836
     11836     11837     11836     11838     11836     11839     11839     11840
     11839     11841     11839     11842     11842     11843     11842     11844
     11842     11845     11846     11847     11846     11848     11846     11849
     11846     11850     11850     11851     11850     11852     11850     11853
     11853     11854     11853     11855     11853     11860     11860     11856
     11856     11859     11856     11857     11856     11858     11861     11862
     11861     11863     11861     11864     11861     11859     11864     11865
     11864     11872     11864     11866     11872     11873     11872     11874
     11872     11875     11866     11867     11867     11869     11867     11868
     11869     11870     11869     11871     11869     11881     11881     11882
     11881     11883     11881     11884     11884     11885     11884     11886
     11884     11887     11887     11888     11887     11889     11887     11890
     11890     11891     11890     11892     11890     11893     11893     11894
     11893     11895     11893     11896     11896     11897     11896     11898
     11896     11899     11899     11900     11899     11901     11901     11902
     11901     11903     11903     11904     11903     11905     11903     11906
     11906     11907     11906     11908     11906     11909     11909     11910
     11909     11911     11909     11912     11912     11913     11912     11914
     11912     11915     11915     11916     11915     11917     11915     11918
     11918     11919     11918     11920     11918     11921     11875     11876
     11876     11878     11876     11877     11878     11879     11878     11880
     11878     11922     11922     11923     11922     11924     11922     11925
     11925     11926     11925     11927     11925     11928     11928     11929
     11928     11930     11928     11931     11931     11932     11931     11933
     11931     11934     11934     11935     11934     11936     11934     11937
     11937     11938     11937     11939     11937     11940     11940     11941
     11940     11942     11942     11943     11942     11944     11944     11945
     11944     11946     11944     11947     11947     11948     11947     11949
     11947     11950     11950     11951     11950     11952     11950     11953
     11953     11954     11953     11955     11953     11956     11956     11957
     11956     11958     11956     11959     11959     11960     11959     11961
     11959     11962     11962     11963     11962     11964     11962     11965
     11965     11966     11965     11967     11965     11968     11969     11970
     11969     11971     11969     11972     11969     11973     11973     11974
     11973     11975     11973     11976     11976     11977     11976     11978
     11976     11983     11983     11979     11979     11982     11979     11980
     11979     11981     11984     11985     11984     11986     11984     11987
     11984     11982     11987     11988     11987     11995     11987     11989
     11995     11996     11995     11997     11995     11998     11989     11990
     11990     11992     11990     11991     11992     11993     11992     11994
     11992     12004     12004     12005     12004     12006     12004     12007
     12007     12008     12007     12009     12007     12010     12010     12011
     12010     12012     12010     12013     12013     12014     12013     12015
     12013     12016     12016     12017     12016     12018     12016     12019
     12019     12020     12019     12021     12019     12022     12022     12023
     12022     12027     12022     12024     12027     12028     12027     12029
     12027     12024     12029     12030     12029     12031     12029     12032
     12032     12033     12032     12034     12032     12035     12035     12036
     12035     12037     12035     12038     12038     12039     12038     12040
     12038     12041     12041     12042     12041     12043     12041     12044
     12044     12045     12044     12046     12044     12047     12024     12025
     12024     12026     11998     11999     11999     12001     11999     12000
     12001     12002     12001     12003     12001     12048     12048     12049
     12048     12050     12048     12051     12051     12052     12051     12053
     12051     12054     12054     12055     12054     12056     12054     12057
     12057     12058     12057     12059     12057     12060     12060     12061
     12060     12062     12060     12063     12063     12064     12063     12065
     12063     12066     12066     12067     12066     12068     12066     12069
     12069     12070     12069     12071     12069     12072     12072     12073
     12072     12074     12072     12075     12075     12076     12075     12077
     12075     12078     12078     12079     12078     12080     12078     12081
     12081     12082     12081     12083     12081     12084     12084     12085
     12084     12086     12084     12087     12092     12091     12091     12088
     12088     12089     12088     12090     12088     12093     12096     12095
     12095     12093     12093     12094     12093     12097     12097     12098
     12097     12099     12097     12104     12104     12100     12100     12103
     12100     12101     12100     12102     12105     12106     12105     12107
     12105     12108     12105     12103     12108     12109     12108     12116
     12108     12110     12116     12117     12116     12118     12116     12119
     12110     12111     12111     12113     12111     12112     12113     12114
     12113     12115     12113     12125     12125     12126     12125     12127
     12125     12128     12128     12129     12128     12130     12128     12131
     12131     12132     12131     12133     12131     12134     12134     12135
     12134     12136     12134     12137     12137     12138     12137     12139
     12137     12140     12140     12141     12140     12142     12140     12143
     12143     12144     12143     12145     12145     12146     12145     12147
     12147     12148     12147     12149     12147     12150     12150     12151
     12150     12152     12150     12153     12153     12154     12153     12155
     12153     12156     12156     12157     12156     12158     12156     12159
     12159     12160     12159     12161     12159     12162     12162     12163
     12162     12164     12162     12165     12119     12120     12120     12122
     12120     12121     12122     12123     12122     12124     12122     12166
     12166     12167     12166     12168     12166     12169     12169     12170
     12169     12171     12169     12172     12172     12173     12172     12174
     12172     12175     12175     12176     12175     12177     12175     12178
     12178     12179     12178     12180     12178     12181     12181     12182
     12181     12183     12181     12184     12184     12185     12184     12186
     12184     12187     12187     12188     12187     12189     12187     12190
     12190     12191     12190     12192     12190     12193     12193     12194
     12193     12195     12193     12196     12196     12197     12196     12198
     12196     12199     12199     12200     12199     12201     12199     12202
     12202     12203     12202     12204     12202     12205     12205     12206
     12205     12207     12205     12208     12209     12210     12209     12211
     12209     12212     12209     12213     12213     12214     12213     12215
     12213     12216     12216     12217     12216     12218     12216     12223
     12223     12219     12219     12222     12219     12220     12219     12221
     12224     12225     12224     12226     12224     12227     12224     12222
     12227     12228     12227     12235     12227     12229     12235     12236
     12235     12237     12235     12238     12229     12230     12230     12232
     12230     12231     12232     12233     12232     12234     12232     12244
     12244     12245     12244     12246     12244     12247     12247     12248
     12247     12249     12247     12250     12250     12251     12250     12252
     12250     12253     12253     12254     12253     12255     12253     12256
     12256     12257     12256     12258     12256     12259     12259     12260
     12259     12261     12259     12262     12262     12263     12262     12264
     12264     12265     12264     12266     12266     12267     12266     12268
     12266     12269     12269     12270     12269     12271     12269     12272
     12272     12273     12272     12274     12272     12275     12275     12276
     12275     12277     12275     12278     12278     12279     12278     12280
     12278     12281     12281     12282     12281     12283     12281     12284
     12284     12285     12284     12286     12284     12287     12287     12288
     12287     12289     12287     12290     12238     12239     12239     12241
     12239     12240     12241     12242     12241     12243     12241     12291
     12291     12292     12291     12293     12291     12294     12294     12295
     12294     12296     12294     12297     12297     12298     12297     12299
     12297     12300     12300     12301     12300     12302     12300     12303
     12303     12304     12303     12305     12303     12306     12306     12307
     12306     12308     12306     12309     12309     12310     12309     12311
     12309     12312     12312     12313     12312     12314     12312     12315
     12315     12316     12315     12317     12315     12318     12318     12319
     12318     12320     12318     12321     12321     12322     12321     12323
     12321     12324     12324     12325     12324     12326     12324     12327
     12327     12328     12327     12329     12327     12330     12330     12331
     12330     12332     12330     12333     12334     12335     12334     12336
     12334     12337     12334     12338     12338     12339     12338     12340
     12338     12341     12341     12342     12341     12343     12341     12348
     12348     12344     12344     12347     12344     12345     12344     12346
     12349     12350     12349     12351     12349     12352     12349     12347
     12352     12353     12352     12360     12352     12354     12360     12361
     12360     12362     12360     12363     12354     12355     12355     12357
     12355     12356     12357     12358     12357     12359     12357     12369
     12369     12370     12369     12371     12369     12372     12372     12373
     12372     12374     12372     12375     12375     12376     12375     12377
     12375     12378     12378     12379     12378     12380     12378     12381
     12381     12382     12381     12383     12381     12384     12384     12385
     12384     12386     12384     12387     12387     12388     12387     12389
     12389     12390     12389     12391     12391     12392     12391     12393
     12391     12394     12394     12395     12394     12396     12394     12397
     12397     12398     12397     12399     12397     12400     12400     12401
     12400     12402     12400     12403     12403     12404     12403     12405
     12403     12406     12406     12407     12406     12408     12406     12409
     12409     12410     12409     12411     12409     12412     12412     12413
     12412     12414     12412     12415     12363     12364     12364     12366
     12364     12365     12366     12367     12366     12368     12366     12416
     12416     12417     12416     12418     12416     12419     12419     12420
     12419     12421     12419     12422     12422     12423     12422     12424
     12422     12425     12425     12426     12425     12427     12425     12428
     12428     12429     12428     12430     12428     12431     12431     12432
     12431     12433     12431     12434     12434     12435     12434     12436
     12434     12437     12437     12438     12437     12439     12437     12440
     12440     12441     12440     12442     12440     12443     12443     12444
     12443     12445     12443     12446     12446     12447     12446     12448
     12446     12449     12449     12450     12449     12451     12449     12452
     12452     12453     12452     12454     12452     12455     12455     12456
     12455     12457     12455     12458     12463     12462     12462     12459
     12459     12460     12459     12461     12459     12464     12467     12466
     12466     12464     12464     12465     12464     12468     12468     12469
     12468     12470     12468     12475     12475     12471     12471     12474
     12471     12472     12471     12473     12476     12477     12476     12478
     12476     12479     12476     12474     12479     12480     12479     12487
     12479     12481     12487     12488     12487     12489     12487     12490
     12481     12482     12482     12484     12482     12483     12484     12485
     12484     12486     12484     12496     12496     12497     12496     12498
     12496     12499     12499     12500     12499     12501     12499     12502
     12502     12503     12502     12504     12502     12505     12505     12506
     12505     12507     12505     12508     12508     12509     12508     12510
     12508     12511     12511     12512     12511     12513     12511     12514
     12514     12515     12514     12519     12514     12516     12519     12520
     12519     12521     12519     12516     12521     12522     12521     12523
     12521     12524     12524     12525     12524     12526     12524     12527
     12527     12528     12527     12529     12527     12530     12530     12531
     12530     12532     12530     12533     12533     12534     12533     12535
     12533     12536     12536     12537     12536     12538     12536     12539
     12516     12517     12516     12518     12490     12491     12491     12493
     12491     12492     12493     12494     12493     12495     12493     12540
     12540     12541     12540     12542     12540     12543     12543     12544
     12543     12545     12543     12546     12546     12547     12546     12548
     12546     12549     12549     12550     12549     12551     12549     12552
     12552     12553     12552     12554     12552     12555     12555     12556
     12555     12557     12555     12558     12558     12559     12558     12560
     12558     12561     12561     12562     12561     12563     12561     12564
     12564     12565     12564     12566     12564     12567     12567     12568
     12567     12569     12567     12570     12570     12571     12570     12572
     12570     12573     12573     12574     12573     12575     12573     12576
     12576     12577     12576     12578     12576     12579     12579     12580
     12579     12581     12579     12582     12583     12584     12583     12585
     12583     12586     12583     12587     12587     12588     12587     12589
     12587     12590     12590     12591     12590     12592     12590     12597
     12597     12593     12593     12596     12593     12594     12593     12595
     12598     12599     12598     12600     12598     12601     12598     12596
     12601     12602     12601     12609     12601     12603     12609     12610
     12609     12611     12609     12612     12603     12604     12604     12606
     12604     12605     12606     12607     12606     12608     12606     12618
     12618     12619     12618     12620     12618     12621     12621     12622
     12621     12623     12621     12624     12624     12625     12624     12626
     12624     12627     12627     12628     12627     12629     12627     12630
     12630     12631     12630     12632     12630     12633     12633     12634
     12633     12635     12633     12636     12636     12637     12636     12638
     12638     12639     12638     12640     12640     12641     12640     12642
     12640     12643     12643     12644     12643     12645     12643     12646
     12646     12647     12646     12648     12646     12649     12649     12650
     12649     12651     12649     12652     12652     12653     12652     12654
     12652     12655     12655     12656     12655     12657     12655     12658
     12658     12659     12658     12660     12658     12661     12661     12662
     12661     12663     12661     12664     12612     12613     12613     12615
     12613     12614     12615     12616     12615     12617     12615     12665
     12665     12666     12665     12667     12665     12668     12668     12669
     12668     12670     12668     12671     12671     12672     12671     12673
     12671     12674     12674     12675     12674     12676     12674     12677
     12677     12678     12677     12679     12677     12680     12680     12681
     12680     12682     12680     12683     12683     12684     12683     12685
     12683     12686     12686     12687     12686     12688     12686     12689
     12689     12690     12689     12691     12689     12692     12692     12693
     12692     12694     12692     12695     12695     12696     12695     12697
     12695     12698     12698     12699     12698     12700     12698     12701
     12701     12702     12701     12703     12701     12704     12704     12705
     12704     12706     12704     12707     12708     12709     12708     12710
     12708     12711     12708     12712     12712     12713     12712     12714
     12712     12715     12715     12716     12715     12717     12715     12722
     12722     12718     12718     12721     12718     12719     12718     12720
     12723     12724     12723     12725     12723     12726     12723     12721
     12726     12727     12726     12734     12726     12728     12734     12735
     12734     12736     12734     12737     12728     12729     12729     12731
     12729     12730     12731     12732     12731     12733     12731     12743
     12743     12744     12743     12745     12743     12746     12746     12747
     12746     12748     12746     12749     12749     12750     12749     12751
     12749     12752     12752     12753     12752     12754     12752     12755
     12755     12756     12755     12757     12755     12758     12758     12759
     12758     12760     12758     12761     12761     12762     12761     12766
     12761     12763     12766     12767     12766     12768     12766     12763
     12768     12769     12768     12770     12768     12771     12771     12772
     12771     12773     12771     12774     12774     12775     12774     12776
     12774     12777     12777     12778     12777     12779     12777     12780
     12780     12781     12780     12782     12780     12783     12783     12784
     12783     12785     12783     12786     12763     12764     12763     12765
     12737     12738     12738     12740     12738     12739     12740     12741
     12740     12742     12740     12787     12787     12788     12787     12789
     12787     12790     12790     12791     12790     12792     12790     12793
     12793     12794     12793     12795     12793     12796     12796     12797
     12796     12798     12796     12799     12799     12800     12799     12801
     12799     12802     12802     12803     12802     12804     12802     12805
     12805     12806     12805     12807     12805     12808     12808     12809
     12808     12810     12808     12811     12811     12812     12811     12813
     12811     12814     12814     12815     12814     12816     12814     12817
     12817     12818     12817     12819     12817     12820     12820     12821
     12820     12822     12820     12823     12823     12824     12823     12825
     12823     12826     12826     12827     12826     12828     12826     12829
     12830     12831     12830     12832     12830     12833     12830     12834
     12834     12835     12834     12836     12834     12837     12837     12838
     12837     12839     12837     12844     12844     12840     12840     12843
     12840     12841     12840     12842     12845     12846     12845     12847
     12845     12848     12845     12843     12848     12849     12848     12856
     12848     12850     12856     12857     12856     12858     12856     12859
     12850     12851     12851     12853     12851     12852     12853     12854
     12853     12855     12853     12865     12865     12866     12865     12867
     12865     12868     12868     12869     12868     12870     12868     12871
     12871     12872     12871     12873     12871     12874     12874     12875
     12874     12876     12874     12877     12877     12878     12877     12879
     12877     12880     12880     12881     12880     12882     12880     12883
     12883     12884     12883     12888     12883     12885     12888     12889
     12888     12890     12888     12885     12890     12891     12890     12892
     12890     12893     12893     12894     12893     12895     12893     12896
     12896     12897     12896     12898     12896     12899     12899     12900
     12899     12901     12899     12902     12902     12903     12902     12904
     12902     12905     12905     12906     12905     12907     12905     12908
     12885     12886     12885     12887     12859     12860     12860     12862
     12860     12861     12862     12863     12862     12864     12862     12909
     12909     12910     12909     12911     12909     12912     12912     12913
     12912     12914     12912     12915     12915     12916     12915     12917
     12915     12918     12918     12919     12918     12920     12918     12921
     12921     12922     12921     12923     12921     12924     12924     12925
     12924     12926     12924     12927     12927     12928     12927     12929
     12927     12930     12930     12931     12930     12932     12930     12933
     12933     12934     12933     12935     12933     12936     12936     12937
     12936     12938     12936     12939     12939     12940     12939     12941
     12939     12942     12942     12943     12942     12944     12942     12945
     12945     12946     12945     12947     12945     12948     12948     12949
     12948     12950     12948     12951     12952     12953     12952     12954
     12952     12955     12952     12956     12956     12957     12956     12958
     12956     12959     12959     12960     12959     12961     12959     12966
     12966     12962     12962     12965     12962     12963     12962     12964
     12967     12968     12967     12969     12967     12970     12967     12965
     12970     12971     12970     12978     12970     12972     12978     12979
     12978     12980     12978     12981     12972     12973     12973     12975
     12973     12974     12975     12976     12975     12977     12975     12987
     12987     12988     12987     12989     12987     12990     12990     12991
     12990     12992     12990     12993     12993     12994     12993     12995
     12993     12996     12996     12997     12996     12998     12996     12999
     12999     13000     12999     13001     12999     13002     13002     13003
     13002     13004     13002     13005     13005     13006     13005     13010
     13005     13007     13010     13011     13010     13012     13010     13007
     13012     13013     13012     13014     13012     13015     13015     13016
     13015     13017     13015     13018     13018     13019     13018     13020
     13018     13021     13021     13022     13021     13023     13021     13024
     13024     13025     13024     13026     13024     13027     13027     13028
     13027     13029     13027     13030     13007     13008     13007     13009
     12981     12982     12982     12984     12982     12983     12984     12985
     12984     12986     12984     13031     13031     13032     13031     13033
     13031     13034     13034     13035     13034     13036     13034     13037
     13037     13038     13037     13039     13037     13040     13040     13041
     13040     13042     13040     13043     13043     13044     13043     13045
     13043     13046     13046     13047     13046     13048     13046     13049
     13049     13050     13049     13051     13049     13052     13052     13053
     13052     13054     13052     13055     13055     13056     13055     13057
     13055     13058     13058     13059     13058     13060     13058     13061
     13061     13062     13061     13063     13061     13064     13064     13065
     13064     13066     13064     13067     13067     13068     13067     13069
     13067     13070     13071     13072     13071     13073     13071     13074
     13071     13075     13075     13076     13075     13077     13075     13078
     13078     13079     13078     13080     13078     13085     13085     13081
     13081     13084     13081     13082     13081     13083     13086     13087
     13086     13088     13086     13089     13086     13084     13089     13090
     13089     13097     13089     13091     13097     13098     13097     13099
     13097     13100     13091     13092     13092     13094     13092     13093
     13094     13095     13094     13096     13094     13106     13106     13107
     13106     13108     13106     13109     13109     13110     13109     13111
     13109     13112     13112     13113     13112     13114     13112     13115
     13115     13116     13115     13117     13115     13118     13118     13119
     13118     13120     13118     13121     13121     13122     13121     13123
     13121     13124     13124     13125     13124     13129     13124     13126
     13129     13130     13129     13131     13129     13126     13131     13132
     13131     13133     13131     13134     13134     13135     13134     13136
     13134     13137     13137     13138     13137     13139     13137     13140
     13140     13141     13140     13142     13140     13143     13143     13144
     13143     13145     13143     13146     13146     13147     13146     13148
     13146     13149     13126     13127     13126     13128     13100     13101
     13101     13103     13101     13102     13103     13104     13103     13105
     13103     13150     13150     13151     13150     13152     13150     13153
     13153     13154     13153     13155     13153     13156     13156     13157
     13156     13158     13156     13159     13159     13160     13159     13161
     13159     13162     13162     13163     13162     13164     13162     13165
     13165     13166     13165     13167     13165     13168     13168     13169
     13168     13170     13168     13171     13171     13172     13171     13173
     13171     13174     13174     13175     13174     13176     13174     13177
     13177     13178     13177     13179     13177     13180     13180     13181
     13180     13182     13180     13183     13183     13184     13183     13185
     13183     13186     13186     13187     13186     13188     13186     13189
     13190     13191     13190     13192     13190     13193     13190     13194
     13194     13195     13194     13196     13194     13197     13197     13198
     13197     13199     13197     13204     13204     13200     13200     13203
     13200     13201     13200     13202     13205     13206     13205     13207
     13205     13208     13205     13203     13208     13209     13208     13216
     13208     13210     13216     13217     13216     13218     13216     13219
     13210     13211     13211     13213     13211     13212     13213     13214
     13213     13215     13213     13225     13225     13226     13225     13227
     13225     13228     13228     13229     13228     13230     13228     13231
     13231     13232     13231     13233     13231     13234     13234     13235
     13234     13236     13234     13237     13237     13238     13237     13239
     13237     13240     13240     13241     13240     13242     13240     13243
     13243     13244     13243     13248     13243     13245     13248     13249
     13248     13250     13248     13245     13250     13251     13250     13252
     13250     13253     13253     13254     13253     13255     13253     13256
     13256     13257     13256     13258     13256     13259     13259     13260
     13259     13261     13259     13262     13262     13263     13262     13264
     13262     13265     13265     13266     13265     13267     13265     13268
     13245     13246     13245     13247     13219     13220     13220     13222
     13220     13221     13222     13223     13222     13224     13222     13269
     13269     13270     13269     13271     13269     13272     13272     13273
     13272     13274     13272     13275     13275     13276     13275     13277
     13275     13278     13278     13279     13278     13280     13278     13281
     13281     13282     13281     13283     13281     13284     13284     13285
     13284     13286     13284     13287     13287     13288     13287     13289
     13287     13290     13290     13291     13290     13292     13290     13293
     13293     13294     13293     13295     13293     13296     13296     13297
     13296     13298     13296     13299     13299     13300     13299     13301
     13299     13302     13302     13303     13302     13304     13302     13305
     13305     13306     13305     13307     13305     13308     13308     13309
     13308     13310     13308     13311     13312     13313     13312     13314
     13312     13315     13312     13316     13316     13317     13316     13318
     13316     13319     13319     13320     13319     13321     13319     13326
     13326     13322     13322     13325     13322     13323     13322     13324
     13327     13328     13327     13329     13327     13330     13327     13325
     13330     13331     13330     13338     13330     13332     13338     13339
     13338     13340     13338     13341     13332     13333     13333     13335
     13333     13334     13335     13336     13335     13337     13335     13347
     13347     13348     13347     13349     13347     13350     13350     13351
     13350     13352     13350     13353     13353     13354     13353     13355
     13353     13356     13356     13357     13356     13358     13356     13359
     13359     13360     13359     13361     13359     13362     13362     13363
     13362     13364     13362     13365     13365     13366     13365     13370
     13365     13367     13370     13371     13370     13372     13370     13367
     13372     13373     13372     13374     13372     13375     13375     13376
     13375     13377     13375     13378     13378     13379     13378     13380
     13378     13381     13381     13382     13381     13383     13381     13384
     13384     13385     13384     13386     13384     13387     13387     13388
     13387     13389     13387     13390     13367     13368     13367     13369
     13341     13342     13342     13344     13342     13343     13344     13345
     13344     13346     13344     13391     13391     13392     13391     13393
     13391     13394     13394     13395     13394     13396     13394     13397
     13397     13398     13397     13399     13397     13400     13400     13401
     13400     13402     13400     13403     13403     13404     13403     13405
     13403     13406     13406     13407     13406     13408     13406     13409
     13409     13410     13409     13411     13409     13412     13412     13413
     13412     13414     13412     13415     13415     13416     13415     13417
     13415     13418     13418     13419     13418     13420     13418     13421
     13421     13422     13421     13423     13421     13424     13424     13425
     13424     13426     13424     13427     13427     13428     13427     13429
     13427     13430     13430     13431     13430     13432     13430     13433
     13434     13435     13434     13436     13434     13437     13434     13438
     13438     13439     13438     13440     13438     13441     13441     13442
     13441     13443     13441     13448     13448     13444     13444     13447
     13444     13445     13444     13446     13449     13450     13449     13451
     13449     13452     13449     13447     13452     13453     13452     13460
     13452     13454     13460     13461     13460     13462     13460     13463
     13454     13455     13455     13457     13455     13456     13457     13458
     13457     13459     13457     13469     13469     13470     13469     13471
     13469     13472     13472     13473     13472     13474     13472     13475
     13475     13476     13475     13477     13475     13478     13478     13479
     13478     13480     13478     13481     13481     13482     13481     13483
     13481     13484     13484     13485     13484     13486     13484     13487
     13487     13488     13487     13492     13487     13489     13492     13493
     13492     13494     13492     13489     13494     13495     13494     13496
     13494     13497     13497     13498     13497     13499     13497     13500
     13500     13501     13500     13502     13500     13503     13503     13504
     13503     13505     13503     13506     13506     13507     13506     13508
     13506     13509     13509     13510     13509     13511     13509     13512
     13489     13490     13489     13491     13463     13464     13464     13466
     13464     13465     13466     13467     13466     13468     13466     13513
     13513     13514     13513     13515     13513     13516     13516     13517
     13516     13518     13516     13519     13519     13520     13519     13521
     13519     13522     13522     13523     13522     13524     13522     13525
     13525     13526     13525     13527     13525     13528     13528     13529
     13528     13530     13528     13531     13531     13532     13531     13533
     13531     13534     13534     13535     13534     13536     13534     13537
     13537     13538     13537     13539     13537     13540     13540     13541
     13540     13542     13540     13543     13543     13544     13543     13545
     13543     13546     13546     13547     13546     13548     13546     13549
     13549     13550     13549     13551     13549     13552     13552     13553
     13552     13554     13552     13555     13556     13557     13556     13558
     13556     13559     13556     13560     13560     13561     13560     13562
     13560     13563     13563     13564     13563     13565     13563     13570
     13570     13566     13566     13569     13566     13567     13566     13568
     13571     13572     13571     13573     13571     13574     13571     13569
     13574     13575     13574     13582     13574     13576     13582     13583
     13582     13584     13582     13585     13576     13577     13577     13579
     13577     13578     13579     13580     13579     13581     13579     13591
     13591     13592     13591     13593     13591     13594     13594     13595
     13594     13596     13594     13597     13597     13598     13597     13599
     13597     13600     13600     13601     13600     13602     13600     13603
     13603     13604     13603     13605     13603     13606     13606     13607
     13606     13608     13606     13609     13609     13610     13609     13614
     13609     13611     13614     13615     13614     13616     13614     13611
     13616     13617     13616     13618     13616     13619     13619     13620
     13619     13621     13619     13622     13622     13623     13622     13624
     13622     13625     13625     13626     13625     13627     13625     13628
     13628     13629     13628     13630     13628     13631     13631     13632
     13631     13633     13631     13634     13611     13612     13611     13613
     13585     13586     13586     13588     13586     13587     13588     13589
     13588     13590     13588     13635     13635     13636     13635     13637
     13635     13638     13638     13639     13638     13640     13638     13641
     13641     13642     13641     13643     13641     13644     13644     13645
     13644     13646     13644     13647     13647     13648     13647     13649
     13647     13650     13650     13651     13650     13652     13650     13653
     13653     13654     13653     13655     13653     13656     13656     13657
     13656     13658     13656     13659     13659     13660     13659     13661
     13659     13662     13662     13663     13662     13664     13662     13665
     13665     13666     13665     13667     13665     13668     13668     13669
     13668     13670     13668     13671     13671     13672     13671     13673
     13671     13674     13674     13675     13674     13676     13674     13677
     13678     13679     13678     13680     13678     13681     13678     13682
     13682     13683     13682     13684     13682     13685     13685     13686
     13685     13687     13685     13692     13692     13688     13688     13691
     13688     13689     13688     13690     13693     13694     13693     13695
     13693     13696     13693     13691     13696     13697     13696     13704
     13696     13698     13704     13705     13704     13706     13704     13707
     13698     13699     13699     13701     13699     13700     13701     13702
     13701     13703     13701     13713     13713     13714     13713     13715
     13713     13716     13716     13717     13716     13718     13716     13719
     13719     13720     13719     13721     13719     13722     13722     13723
     13722     13724     13722     13725     13725     13726     13725     13727
     13725     13728     13728     13729     13728     13730     13728     13731
     13731     13732     13731     13736     13731     13733     13736     13737
     13736     13738     13736     13733     13738     13739     13738     13740
     13738     13741     13741     13742     13741     13743     13741     13744
     13744     13745     13744     13746     13744     13747     13747     13748
     13747     13749     13747     13750     13750     13751     13750     13752
     13750     13753     13753     13754     13753     13755     13753     13756
     13733     13734     13733     13735     13707     13708     13708     13710
     13708     13709     13710     13711     13710     13712     13710     13757
     13757     13758     13757     13759     13757     13760     13760     13761
     13760     13762     13760     13763     13763     13764     13763     13765
     13763     13766     13766     13767     13766     13768     13766     13769
     13769     13770     13769     13771     13769     13772     13772     13773
     13772     13774     13772     13775     13775     13776     13775     13777
     13775     13778     13778     13779     13778     13780     13778     13781
     13781     13782     13781     13783     13781     13784     13784     13785
     13784     13786     13784     13787     13787     13788     13787     13789
     13787     13790     13790     13791     13790     13792     13790     13793
     13793     13794     13793     13795     13793     13796     13796     13797
     13796     13798     13796     13799     13800     13801     13800     13802
     13800     13803     13800     13804     13804     13805     13804     13806
     13804     13807     13807     13808     13807     13809     13807     13814
     13814     13810     13810     13813     13810     13811     13810     13812
     13815     13816     13815     13817     13815     13818     13815     13813
     13818     13819     13818     13826     13818     13820     13826     13827
     13826     13828     13826     13829     13820     13821     13821     13823
     13821     13822     13823     13824     13823     13825     13823     13835
     13835     13836     13835     13837     13835     13838     13838     13839
     13838     13840     13838     13841     13841     13842     13841     13843
     13841     13844     13844     13845     13844     13846     13844     13847
     13847     13848     13847     13849     13847     13850     13850     13851
     13850     13852     13850     13853     13853     13854     13853     13858
     13853     13855     13858     13859     13858     13860     13858     13855
     13860     13861     13860     13862     13860     13863     13863     13864
     13863     13865     13863     13866     13866     13867     13866     13868
     13866     13869     13869     13870     13869     13871     13869     13872
     13872     13873     13872     13874     13872     13875     13875     13876
     13875     13877     13875     13878     13855     13856     13855     13857
     13829     13830     13830     13832     13830     13831     13832     13833
     13832     13834     13832     13879     13879     13880     13879     13881
     13879     13882     13882     13883     13882     13884     13882     13885
     13885     13886     13885     13887     13885     13888     13888     13889
     13888     13890     13888     13891     13891     13892     13891     13893
     13891     13894     13894     13895     13894     13896     13894     13897
     13897     13898     13897     13899     13897     13900     13900     13901
     13900     13902     13900     13903     13903     13904     13903     13905
     13903     13906     13906     13907     13906     13908     13906     13909
     13909     13910     13909     13911     13909     13912     13912     13913
     13912     13914     13912     13915     13915     13916     13915     13917
     13915     13918     13923     13922     13922     13919     13919     13920
     13919     13921     13919     13924     13927     13926     13926     13924
     13924     13925     13924     13928     13928     13929     13928     13930
     13928     13935     13935     13931     13931     13934     13931     13932
     13931     13933     13936     13937     13936     13938     13936     13939
     13936     13934     13939     13940     13939     13947     13939     13941
     13947     13948     13947     13949     13947     13950     13941     13942
     13942     13944     13942     13943     13944     13945     13944     13946
     13944     13956     13956     13957     13956     13958     13956     13959
     13959     13960     13959     13961     13959     13962     13962     13963
     13962     13964     13962     13965     13965     13966     13965     13967
     13965     13968     13968     13969     13968     13970     13968     13971
     13971     13972     13971     13973     13971     13974     13974     13975
     13974     13979     13974     13976     13979     13980     13979     13981
     13979     13976     13981     13982     13981     13983     13981     13984
     13984     13985     13984     13986     13984     13987     13987     13988
     13987     13989     13987     13990     13990     13991     13990     13992
     13990     13993     13993     13994     13993     13995     13993     13996
     13996     13997     13996     13998     13996     13999     13976     13977
     13976     13978     13950     13951     13951     13953     13951     13952
     13953     13954     13953     13955     13953     14000     14000     14001
     14000     14002     14000     14003     14003     14004     14003     14005
     14003     14006     14006     14007     14006     14008     14006     14009
     14009     14010     14009     14011     14009     14012     14012     14013
     14012     14014     14012     14015     14015     14016     14015     14017
     14015     14018     14018     14019     14018     14020     14018     14021
     14021     14022     14021     14023     14021     14024     14024     14025
     14024     14026     14024     14027     14027     14028     14027     14029
     14027     14030     14030     14031     14030     14032     14030     14033
     14033     14034     14033     14035     14033     14036     14036     14037
     14036     14038     14036     14039     14039     14040     14039     14041
     14039     14042     14043     14044     14043     14045     14043     14046
     14043     14047     14047     14048     14047     14049     14047     14050
     14050     14051     14050     14052     14050     14057     14057     14053
     14053     14056     14053     14054     14053     14055     14058     14059
     14058     14060     14058     14061     14058     14056     14061     14062
     14061     14069     14061     14063     14069     14070     14069     14071
     14069     14072     14063     14064     14064     14066     14064     14065
     14066     14067     14066     14068     14066     14078     14078     14079
     14078     14080     14078     14081     14081     14082     14081     14083
     14081     14084     14084     14085     14084     14086     14084     14087
     14087     14088     14087     14089     14087     14090     14090     14091
     14090     14092     14090     14093     14093     14094     14093     14095
     14093     14096     14096     14097     14096     14098     14098     14099
     14098     14100     14100     14101     14100     14102     14100     14103
     14103     14104     14103     14105     14103     14106     14106     14107
     14106     14108     14106     14109     14109     14110     14109     14111
     14109     14112     14112     14113     14112     14114     14112     14115
     14115     14116     14115     14117     14115     14118     14118     14119
     14118     14120     14118     14121     14121     14122     14121     14123
     14121     14124     14072     14073     14073     14075     14073     14074
     14075     14076     14075     14077     14075     14125     14125     14126
     14125     14127     14125     14128     14128     14129     14128     14130
     14128     14131     14131     14132     14131     14133     14131     14134
     14134     14135     14134     14136     14134     14137     14137     14138
     14137     14139     14137     14140     14140     14141     14140     14142
     14140     14143     14143     14144     14143     14145     14143     14146
     14146     14147     14146     14148     14146     14149     14149     14150
     14149     14151     14149     14152     14152     14153     14152     14154
     14152     14155     14155     14156     14155     14157     14155     14158
     14158     14159     14158     14160     14158     14161     14161     14162
     14161     14163     14161     14164     14164     14165     14164     14166
     14164     14167     14168     14169     14168     14170     14168     14171
     14168     14172     14172     14173     14172     14174     14172     14175
     14175     14176     14175     14177     14175     14182     14182     14178
     14178     14181     14178     14179     14178     14180     14183     14184
     14183     14185     14183     14186     14183     14181     14186     14187
     14186     14194     14186     14188     14194     14195     14194     14196
     14194     14197     14188     14189     14189     14191     14189     14190
     14191     14192     14191     14193     14191     14203     14203     14204
     14203     14205     14203     14206     14206     14207     14206     14208
     14206     14209     14209     14210     14209     14211     14209     14212
     14212     14213     14212     14214     14212     14215     14215     14216
     14215     14217     14215     14218     14218     14219     14218     14220
     14218     14221     14221     14222     14221     14226     14221     14223
     14226     14227     14226     14228     14226     14223     14228     14229
     14228     14230     14228     14231     14231     14232     14231     14233
     14231     14234     14234     14235     14234     14236     14234     14237
     14237     14238     14237     14239     14237     14240     14240     14241
     14240     14242     14240     14243     14243     14244     14243     14245
     14243     14246     14223     14224     14223     14225     14197     14198
     14198     14200     14198     14199     14200     14201     14200     14202
     14200     14247     14247     14248     14247     14249     14247     14250
     14250     14251     14250     14252     14250     14253     14253     14254
     14253     14255     14253     14256     14256     14257     14256     14258
     14256     14259     14259     14260     14259     14261     14259     14262
     14262     14263     14262     14264     14262     14265     14265     14266
     14265     14267     14265     14268     14268     14269     14268     14270
     14268     14271     14271     14272     14271     14273     14271     14274
     14274     14275     14274     14276     14274     14277     14277     14278
     14277     14279     14277     14280     14280     14281     14280     14282
     14280     14283     14283     14284     14283     14285     14283     14286
     14286     14287     14286     14288     14286     14289     14290     14291
     14290     14292     14290     14293     14290     14294     14294     14295
     14294     14296     14294     14297     14297     14298     14297     14299
     14297     14304     14304     14300     14300     14303     14300     14301
     14300     14302     14305     14306     14305     14307     14305     14308
     14305     14303     14308     14309     14308     14316     14308     14310
     14316     14317     14316     14318     14316     14319     14310     14311
     14311     14313     14311     14312     14313     14314     14313     14315
     14313     14325     14325     14326     14325     14327     14325     14328
     14328     14329     14328     14330     14328     14331     14331     14332
     14331     14333     14331     14334     14334     14335     14334     14336
     14334     14337     14337     14338     14337     14339     14337     14340
     14340     14341     14340     14342     14340     14343     14343     14344
     14343     14345     14345     14346     14345     14347     14347     14348
     14347     14349     14347     14350     14350     14351     14350     14352
     14350     14353     14353     14354     14353     14355     14353     14356
     14356     14357     14356     14358     14356     14359     14359     14360
     14359     14361     14359     14362     14362     14363     14362     14364
     14362     14365     14365     14366     14365     14367     14365     14368
     14368     14369     14368     14370     14368     14371     14319     14320
     14320     14322     14320     14321     14322     14323     14322     14324
     14322     14372     14372     14373     14372     14374     14372     14375
     14375     14376     14375     14377     14375     14378     14378     14379
     14378     14380     14378     14381     14381     14382     14381     14383
     14381     14384     14384     14385     14384     14386     14384     14387
     14387     14388     14387     14389     14387     14390     14390     14391
     14390     14392     14390     14393     14393     14394     14393     14395
     14393     14396     14396     14397     14396     14398     14396     14399
     14399     14400     14399     14401     14399     14402     14402     14403
     14402     14404     14402     14405     14405     14406     14405     14407
     14405     14408     14408     14409     14408     14410     14408     14411
     14411     14412     14411     14413     14411     14414     14419     14418
     14418     14415     14415     14416     14415     14417     14415     14420
     14423     14422     14422     14420     14420     14421     14420     14424
     14424     14425     14424     14426     14424     14431     14431     14427
     14427     14430     14427     14428     14427     14429     14432     14433
     14432     14434     14432     14435     14432     14430     14435     14436
     14435     14443     14435     14437     14443     14444     14443     14445
     14443     14446     14437     14438     14438     14440     14438     14439
     14440     14441     14440     14442     14440     14452     14452     14453
     14452     14454     14452     14455     14455     14456     14455     14457
     14455     14458     14458     14459     14458     14460     14458     14461
     14461     14462     14461     14463     14461     14464     14464     14465
     14464     14466     14464     14467     14467     14468     14467     14469
     14467     14470     14470     14471     14470     14475     14470     14472
     14475     14476     14475     14477     14475     14472     14477     14478
     14477     14479     14477     14480     14480     14481     14480     14482
     14480     14483     14483     14484     14483     14485     14483     14486
     14486     14487     14486     14488     14486     14489     14489     14490
     14489     14491     14489     14492     14492     14493     14492     14494
     14492     14495     14472     14473     14472     14474     14446     14447
     14447     14449     14447     14448     14449     14450     14449     14451
     14449     14496     14496     14497     14496     14498     14496     14499
     14499     14500     14499     14501     14499     14502     14502     14503
     14502     14504     14502     14505     14505     14506     14505     14507
     14505     14508     14508     14509     14508     14510     14508     14511
     14511     14512     14511     14513     14511     14514     14514     14515
     14514     14516     14514     14517     14517     14518     14517     14519
     14517     14520     14520     14521     14520     14522     14520     14523
     14523     14524     14523     14525     14523     14526     14526     14527
     14526     14528     14526     14529     14529     14530     14529     14531
     14529     14532     14532     14533     14532     14534     14532     14535
     14535     14536     14535     14537     14535     14538     14539     14540
     14539     14541     14539     14542     14539     14543     14543     14544
     14543     14545     14543     14546     14546     14547     14546     14548
     14546     14553     14553     14549     14549     14552     14549     14550
     14549     14551     14554     14555     14554     14556     14554     14557
     14554     14552     14557     14558     14557     14565     14557     14559
     14565     14566     14565     14567     14565     14568     14559     14560
     14560     14562     14560     14561     14562     14563     14562     14564
     14562     14574     14574     14575     14574     14576     14574     14577
     14577     14578     14577     14579     14577     14580     14580     14581
     14580     14582     14580     14583     14583     14584     14583     14585
     14583     14586     14586     14587     14586     14588     14586     14589
     14589     14590     14589     14591     14589     14592     14592     14593
     14592     14597     14592     14594     14597     14598     14597     14599
     14597     14594     14599     14600     14599     14601     14599     14602
     14602     14603     14602     14604     14602     14605     14605     14606
     14605     14607     14605     14608     14608     14609     14608     14610
     14608     14611     14611     14612     14611     14613     14611     14614
     14614     14615     14614     14616     14614     14617     14594     14595
     14594     14596     14568     14569     14569     14571     14569     14570
     14571     14572     14571     14573     14571     14618     14618     14619
     14618     14620     14618     14621     14621     14622     14621     14623
     14621     14624     14624     14625     14624     14626     14624     14627
     14627     14628     14627     14629     14627     14630     14630     14631
     14630     14632     14630     14633     14633     14634     14633     14635
     14633     14636     14636     14637     14636     14638     14636     14639
     14639     14640     14639     14641     14639     14642     14642     14643
     14642     14644     14642     14645     14645     14646     14645     14647
     14645     14648     14648     14649     14648     14650     14648     14651
     14651     14652     14651     14653     14651     14654     14654     14655
     14654     14656     14654     14657     14657     14658     14657     14659
     14657     14660     14661     14662     14661     14663     14661     14664
     14661     14665     14665     14666     14665     14667     14665     14668
     14668     14669     14668     14670     14668     14675     14675     14671
     14671     14674     14671     14672     14671     14673     14676     14677
     14676     14678     14676     14679     14676     14674     14679     14680
     14679     14687     14679     14681     14687     14688     14687     14689
     14687     14690     14681     14682     14682     14684     14682     14683
     14684     14685     14684     14686     14684     14696     14696     14697
     14696     14698     14696     14699     14699     14700     14699     14701
     14699     14702     14702     14703     14702     14704     14702     14705
     14705     14706     14705     14707     14705     14708     14708     14709
     14708     14710     14708     14711     14711     14712     14711     14713
     14711     14714     14714     14715     14714     14719     14714     14716
     14719     14720     14719     14721     14719     14716     14721     14722
     14721     14723     14721     14724     14724     14725     14724     14726
     14724     14727     14727     14728     14727     14729     14727     14730
     14730     14731     14730     14732     14730     14733     14733     14734
     14733     14735     14733     14736     14736     14737     14736     14738
     14736     14739     14716     14717     14716     14718     14690     14691
     14691     14693     14691     14692     14693     14694     14693     14695
     14693     14740     14740     14741     14740     14742     14740     14743
     14743     14744     14743     14745     14743     14746     14746     14747
     14746     14748     14746     14749     14749     14750     14749     14751
     14749     14752     14752     14753     14752     14754     14752     14755
     14755     14756     14755     14757     14755     14758     14758     14759
     14758     14760     14758     14761     14761     14762     14761     14763
     14761     14764     14764     14765     14764     14766     14764     14767
     14767     14768     14767     14769     14767     14770     14770     14771
     14770     14772     14770     14773     14773     14774     14773     14775
     14773     14776     14776     14777     14776     14778     14776     14779
     14779     14780     14779     14781     14779     14782     14783     14784
     14783     14785     14783     14786     14783     14787     14787     14788
     14787     14789     14787     14790     14790     14791     14790     14792
     14790     14797     14797     14793     14793     14796     14793     14794
     14793     14795     14798     14799     14798     14800     14798     14801
     14798     14796     14801     14802     14801     14809     14801     14803
     14809     14810     14809     14811     14809     14812     14803     14804
     14804     14806     14804     14805     14806     14807     14806     14808
     14806     14818     14818     14819     14818     14820     14818     14821
     14821     14822     14821     14823     14821     14824     14824     14825
     14824     14826     14824     14827     14827     14828     14827     14829
     14827     14830     14830     14831     14830     14832     14830     14833
     14833     14834     14833     14835     14833     14836     14836     14837
     14836     14841     14836     14838     14841     14842     14841     14843
     14841     14838     14843     14844     14843     14845     14843     14846
     14846     14847     14846     14848     14846     14849     14849     14850
     14849     14851     14849     14852     14852     14853     14852     14854
     14852     14855     14855     14856     14855     14857     14855     14858
     14858     14859     14858     14860     14858     14861     14838     14839
     14838     14840     14812     14813     14813     14815     14813     14814
     14815     14816     14815     14817     14815     14862     14862     14863
     14862     14864     14862     14865     14865     14866     14865     14867
     14865     14868     14868     14869     14868     14870     14868     14871
     14871     14872     14871     14873     14871     14874     14874     14875
     14874     14876     14874     14877     14877     14878     14877     14879
     14877     14880     14880     14881     14880     14882     14880     14883
     14883     14884     14883     14885     14883     14886     14886     14887
     14886     14888     14886     14889     14889     14890     14889     14891
     14889     14892     14892     14893     14892     14894     14892     14895
     14895     14896     14895     14897     14895     14898     14898     14899
     14898     14900     14898     14901     14901     14902     14901     14903
     14901     14904     14905     14906     14905     14907     14905     14908
     14905     14909     14909     14910     14909     14911     14909     14912
     14912     14913     14912     14914     14912     14919     14919     14915
     14915     14918     14915     14916     14915     14917     14920     14921
     14920     14922     14920     14923     14920     14918     14923     14924
     14923     14931     14923     14925     14931     14932     14931     14933
     14931     14934     14925     14926     14926     14928     14926     14927
     14928     14929     14928     14930     14928     14940     14940     14941
     14940     14942     14940     14943     14943     14944     14943     14945
     14943     14946     14946     14947     14946     14948     14946     14949
     14949     14950     14949     14951     14949     14952     14952     14953
     14952     14954     14952     14955     14955     14956     14955     14957
     14955     14958     14958     14959     14958     14960     14960     14961
     14960     14962     14962     14963     14962     14964     14962     14965
     14965     14966     14965     14967     14965     14968     14968     14969
     14968     14970     14968     14971     14971     14972     14971     14973
     14971     14974     14974     14975     14974     14976     14974     14977
     14977     14978     14977     14979     14977     14980     14934     14935
     14935     14937     14935     14936     14937     14938     14937     14939
     14937     14981     14981     14982     14981     14983     14981     14984
     14984     14985     14984     14986     14984     14987     14987     14988
     14987     14989     14987     14990     14990     14991     14990     14992
     14990     14993     14993     14994     14993     14995     14993     14996
     14996     14997     14996     14998     14996     14999     14999     15000
     14999     15001     15001     15002     15001     15003     15003     15004
     15003     15005     15003     15006     15006     15007     15006     15008
     15006     15009     15009     15010     15009     15011     15009     15012
     15012     15013     15012     15014     15012     15015     15015     15016
     15015     15017     15015     15018     15018     15019     15018     15020
     15018     15021     15021     15022     15021     15023     15021     15024
     15024     15025     15024     15026     15024     15027     15043     15039
     15043     15044     15043     15045     15039     15041     15039     15040
     15041     15042     15039     15028     15028     15029     15028     15030
     15043     15049     15028     15034     15046     15049     15046     15050
     15046     15047     15046     15048     15031     15034     15031     15035
     15031     15032     15031     15033     15050     15051     15051     15052
     15051     15053     15051     15054     15054     15055     15054     15056
     15054     15062     15062     15063     15062     15064     15062     15065
     15035     15036     15036     15037     15036     15038     15036     15071
     15071     15072     15071     15073     15071     15079     15079     15080
     15079     15081     15079     15082     15056     15057     15065     15066
     15073     15074     15082     15083     15057     15058     15057     15059
     15059     15060     15059     15061     15059     15088     15088     15089
     15088     15090     15088     15091     15091     15092     15091     15093
     15091     15094     15094     15095     15094     15096     15094     15097
     15097     15098     15097     15099     15097     15100     15100     15101
     15100     15102     15100     15103     15103     15104     15103     15105
     15103     15106     15106     15107     15106     15108     15106     15109
     15109     15110     15109     15111     15109     15112     15112     15113
     15112     15114     15114     15115     15114     15116     15116     15117
     15116     15118     15116     15119     15119     15120     15119     15121
     15119     15122     15122     15123     15122     15124     15122     15125
     15125     15126     15125     15127     15125     15128     15128     15129
     15128     15130     15128     15131     15131     15132     15131     15133
     15131     15134     15066     15067     15066     15068     15068     15069
     15068     15070     15068     15135     15135     15136     15135     15137
     15135     15138     15138     15139     15138     15140     15138     15141
     15141     15142     15141     15143     15141     15144     15144     15145
     15144     15146     15144     15147     15147     15148     15147     15149
     15147     15150     15150     15151     15150     15152     15150     15153
     15153     15154     15153     15155     15153     15156     15156     15157
     15156     15158     15156     15159     15159     15160     15159     15161
     15159     15162     15162     15163     15162     15164     15162     15165
     15165     15166     15165     15167     15165     15168     15168     15169
     15168     15170     15168     15171     15171     15172     15171     15173
     15171     15174     15174     15175     15174     15176     15174     15177
     15074     15075     15074     15076     15076     15077     15076     15078
     15076     15178     15178     15179     15178     15180     15178     15181
     15181     15182     15181     15183     15181     15184     15184     15185
     15184     15186     15184     15187     15187     15188     15187     15189
     15187     15190     15190     15191     15190     15192     15190     15193
     15193     15194     15193     15195     15193     15196     15196     15197
     15196     15198     15196     15199     15199     15200     15199     15201
     15199     15202     15202     15203     15202     15204     15204     15205
     15204     15206     15206     15207     15206     15208     15206     15209
     15209     15210     15209     15211     15209     15212     15212     15213
     15212     15214     15212     15215     15215     15216     15215     15217
     15215     15218     15218     15219     15218     15220     15218     15221
     15221     15222     15221     15223     15221     15224     15083     15084
     15083     15085     15085     15086     15085     15087     15085     15225
     15225     15226     15225     15227     15225     15228     15228     15229
     15228     15230     15228     15231     15231     15232     15231     15233
     15231     15234     15234     15235     15234     15236     15234     15237
     15237     15238     15237     15239     15237     15240     15240     15241
     15240     15242     15240     15243     15243     15244     15243     15245
     15243     15246     15246     15247     15246     15248     15246     15249
     15249     15250     15249     15251     15249     15252     15252     15253
     15252     15254     15252     15255     15255     15256     15255     15257
     15255     15258     15258     15259     15258     15260     15258     15261
     15261     15262     15261     15263     15261     15264     15264     15265
     15264     15266     15264     15267     15268     15269     15268     15270
     15268     15271     15268     15272     15272     15273     15272     15274
     15272     15275     15275     15276     15275     15277     15275     15282
     15282     15278     15278     15281     15278     15279     15278     15280
     15283     15284     15283     15285     15283     15286     15283     15281
     15286     15287     15286     15294     15286     15288     15294     15295
     15294     15296     15294     15297     15288     15289     15289     15291
     15289     15290     15291     15292     15291     15293     15291     15303
     15303     15304     15303     15305     15303     15306     15306     15307
     15306     15308     15306     15309     15309     15310     15309     15311
     15309     15312     15312     15313     15312     15314     15312     15315
     15315     15316     15315     15317     15315     15318     15318     15319
     15318     15320     15318     15321     15321     15322     15321     15326
     15321     15323     15326     15327     15326     15328     15326     15323
     15328     15329     15328     15330     15328     15331     15331     15332
     15331     15333     15331     15334     15334     15335     15334     15336
     15334     15337     15337     15338     15337     15339     15337     15340
     15340     15341     15340     15342     15340     15343     15343     15344
     15343     15345     15343     15346     15323     15324     15323     15325
     15297     15298     15298     15300     15298     15299     15300     15301
     15300     15302     15300     15347     15347     15348     15347     15349
     15347     15350     15350     15351     15350     15352     15350     15353
     15353     15354     15353     15355     15353     15356     15356     15357
     15356     15358     15356     15359     15359     15360     15359     15361
     15359     15362     15362     15363     15362     15364     15362     15365
     15365     15366     15365     15367     15365     15368     15368     15369
     15368     15370     15368     15371     15371     15372     15371     15373
     15371     15374     15374     15375     15374     15376     15374     15377
     15377     15378     15377     15379     15377     15380     15380     15381
     15380     15382     15380     15383     15383     15384     15383     15385
     15383     15386     15386     15387     15386     15388     15386     15389
     15390     15391     15390     15392     15390     15393     15390     15394
     15394     15395     15394     15396     15394     15397     15397     15398
     15397     15399     15397     15404     15404     15400     15400     15403
     15400     15401     15400     15402     15405     15406     15405     15407
     15405     15408     15405     15403     15408     15409     15408     15416
     15408     15410     15416     15417     15416     15418     15416     15419
     15410     15411     15411     15413     15411     15412     15413     15414
     15413     15415     15413     15425     15425     15426     15425     15427
     15425     15428     15428     15429     15428     15430     15428     15431
     15431     15432     15431     15433     15431     15434     15434     15435
     15434     15436     15434     15437     15437     15438     15437     15439
     15437     15440     15440     15441     15440     15442     15440     15443
     15443     15444     15443     15445     15445     15446     15445     15447
     15447     15448     15447     15449     15447     15450     15450     15451
     15450     15452     15450     15453     15453     15454     15453     15455
     15453     15456     15456     15457     15456     15458     15456     15459
     15459     15460     15459     15461     15459     15462     15462     15463
     15462     15464     15462     15465     15419     15420     15420     15422
     15420     15421     15422     15423     15422     15424     15422     15466
     15466     15467     15466     15468     15466     15469     15469     15470
     15469     15471     15469     15472     15472     15473     15472     15474
     15472     15475     15475     15476     15475     15477     15475     15478
     15478     15479     15478     15480     15478     15481     15481     15482
     15481     15483     15481     15484     15484     15485     15484     15486
     15486     15487     15486     15488     15488     15489     15488     15490
     15488     15491     15491     15492     15491     15493     15491     15494
     15494     15495     15494     15496     15494     15497     15497     15498
     15497     15499     15497     15500     15500     15501     15500     15502
     15500     15503     15503     15504     15503     15505     15503     15506
     15506     15507     15506     15508     15506     15509     15509     15510
     15509     15511     15509     15512     15513     15514     15513     15515
     15513     15516     15513     15517     15517     15518     15517     15519
     15517     15520     15520     15521     15520     15522     15520     15527
     15527     15523     15523     15526     15523     15524     15523     15525
     15528     15529     15528     15530     15528     15531     15528     15526
     15531     15532     15531     15539     15531     15533     15539     15540
     15539     15541     15539     15542     15533     15534     15534     15536
     15534     15535     15536     15537     15536     15538     15536     15548
     15548     15549     15548     15550     15548     15551     15551     15552
     15551     15553     15551     15554     15554     15555     15554     15556
     15554     15557     15557     15558     15557     15559     15557     15560
     15560     15561     15560     15562     15560     15563     15563     15564
     15563     15565     15563     15566     15566     15567     15566     15571
     15566     15568     15571     15572     15571     15573     15571     15568
     15573     15574     15573     15575     15573     15576     15576     15577
     15576     15578     15576     15579     15579     15580     15579     15581
     15579     15582     15582     15583     15582     15584     15582     15585
     15585     15586     15585     15587     15585     15588     15588     15589
     15588     15590     15588     15591     15568     15569     15568     15570
     15542     15543     15543     15545     15543     15544     15545     15546
     15545     15547     15545     15592     15592     15593     15592     15594
     15592     15595     15595     15596     15595     15597     15595     15598
     15598     15599     15598     15600     15598     15601     15601     15602
     15601     15603     15601     15604     15604     15605     15604     15606
     15604     15607     15607     15608     15607     15609     15607     15610
     15610     15611     15610     15612     15610     15613     15613     15614
     15613     15615     15613     15616     15616     15617     15616     15618
     15616     15619     15619     15620     15619     15621     15619     15622
     15622     15623     15622     15624     15622     15625     15625     15626
     15625     15627     15625     15628     15628     15629     15628     15630
     15628     15631     15631     15632     15631     15633     15631     15634
     15635     15636     15635     15637     15635     15638     15635     15639
     15639     15640     15639     15641     15639     15642     15642     15643
     15642     15644     15642     15649     15649     15645     15645     15648
     15645     15646     15645     15647     15650     15651     15650     15652
     15650     15653     15650     15648     15653     15654     15653     15661
     15653     15655     15661     15662     15661     15663     15661     15664
     15655     15656     15656     15658     15656     15657     15658     15659
     15658     15660     15658     15670     15670     15671     15670     15672
     15670     15673     15673     15674     15673     15675     15673     15676
     15676     15677     15676     15678     15676     15679     15679     15680
     15679     15681     15679     15682     15682     15683     15682     15684
     15682     15685     15685     15686     15685     15687     15685     15688
     15688     15689     15688     15693     15688     15690     15693     15694
     15693     15695     15693     15690     15695     15696     15695     15697
     15695     15698     15698     15699     15698     15700     15698     15701
     15701     15702     15701     15703     15701     15704     15704     15705
     15704     15706     15704     15707     15707     15708     15707     15709
     15707     15710     15710     15711     15710     15712     15710     15713
     15690     15691     15690     15692     15664     15665     15665     15667
     15665     15666     15667     15668     15667     15669     15667     15714
     15714     15715     15714     15716     15714     15717     15717     15718
     15717     15719     15717     15720     15720     15721     15720     15722
     15720     15723     15723     15724     15723     15725     15723     15726
     15726     15727     15726     15728     15726     15729     15729     15730
     15729     15731     15729     15732     15732     15733     15732     15734
     15732     15735     15735     15736     15735     15737     15735     15738
     15738     15739     15738     15740     15738     15741     15741     15742
     15741     15743     15741     15744     15744     15745     15744     15746
     15744     15747     15747     15748     15747     15749     15747     15750
     15750     15751     15750     15752     15750     15753     15753     15754
     15753     15755     15753     15756     15757     15758     15757     15759
     15757     15760     15757     15761     15761     15762     15761     15763
     15761     15764     15764     15765     15764     15766     15764     15771
     15771     15767     15767     15770     15767     15768     15767     15769
     15772     15773     15772     15774     15772     15775     15772     15770
     15775     15776     15775     15783     15775     15777     15783     15784
     15783     15785     15783     15786     15777     15778     15778     15780
     15778     15779     15780     15781     15780     15782     15780     15792
     15792     15793     15792     15794     15792     15795     15795     15796
     15795     15797     15795     15798     15798     15799     15798     15800
     15798     15801     15801     15802     15801     15803     15801     15804
     15804     15805     15804     15806     15804     15807     15807     15808
     15807     15809     15807     15810     15810     15811     15810     15815
     15810     15812     15815     15816     15815     15817     15815     15812
     15817     15818     15817     15819     15817     15820     15820     15821
     15820     15822     15820     15823     15823     15824     15823     15825
     15823     15826     15826     15827     15826     15828     15826     15829
     15829     15830     15829     15831     15829     15832     15832     15833
     15832     15834     15832     15835     15812     15813     15812     15814
     15786     15787     15787     15789     15787     15788     15789     15790
     15789     15791     15789     15836     15836     15837     15836     15838
     15836     15839     15839     15840     15839     15841     15839     15842
     15842     15843     15842     15844     15842     15845     15845     15846
     15845     15847     15845     15848     15848     15849     15848     15850
     15848     15851     15851     15852     15851     15853     15851     15854
     15854     15855     15854     15856     15854     15857     15857     15858
     15857     15859     15857     15860     15860     15861     15860     15862
     15860     15863     15863     15864     15863     15865     15863     15866
     15866     15867     15866     15868     15866     15869     15869     15870
     15869     15871     15869     15872     15872     15873     15872     15874
     15872     15875     15880     15879     15879     15876     15876     15877
     15876     15878     15876     15881     15884     15883     15883     15881
     15881     15882     15881     15885     15885     15886     15885     15887
     15885     15892     15892     15888     15888     15891     15888     15889
     15888     15890     15893     15894     15893     15895     15893     15896
     15893     15891     15896     15897     15896     15904     15896     15898
     15904     15905     15904     15906     15904     15907     15898     15899
     15899     15901     15899     15900     15901     15902     15901     15903
     15901     15913     15913     15914     15913     15915     15913     15916
     15916     15917     15916     15918     15916     15919     15919     15920
     15919     15921     15919     15922     15922     15923     15922     15924
     15922     15925     15925     15926     15925     15927     15925     15928
     15928     15929     15928     15930     15928     15931     15931     15932
     15931     15933     15933     15934     15933     15935     15935     15936
     15935     15937     15935     15938     15938     15939     15938     15940
     15938     15941     15941     15942     15941     15943     15941     15944
     15944     15945     15944     15946     15944     15947     15947     15948
     15947     15949     15947     15950     15950     15951     15950     15952
     15950     15953     15907     15908     15908     15910     15908     15909
     15910     15911     15910     15912     15910     15954     15954     15955
     15954     15956     15954     15957     15957     15958     15957     15959
     15957     15960     15960     15961     15960     15962     15960     15963
     15963     15964     15963     15965     15963     15966     15966     15967
     15966     15968     15966     15969     15969     15970     15969     15971
     15969     15972     15972     15973     15972     15974     15972     15975
     15975     15976     15975     15977     15975     15978     15978     15979
     15978     15980     15978     15981     15981     15982     15981     15983
     15981     15984     15984     15985     15984     15986     15984     15987
     15987     15988     15987     15989     15987     15990     15990     15991
     15990     15992     15990     15993     15993     15994     15993     15995
     15993     15996     16001     16000     16000     15997     15997     15998
     15997     15999     15997     16002     16005     16004     16004     16002
     16002     16003     16002     16006     16006     16007     16006     16008
     16006     16013     16013     16009     16009     16012     16009     16010
     16009     16011     16014     16015     16014     16016     16014     16017
     16014     16012     16017     16018     16017     16025     16017     16019
     16025     16026     16025     16027     16025     16028     16019     16020
     16020     16022     16020     16021     16022     16023     16022     16024
     16022     16034     16034     16035     16034     16036     16034     16037
     16037     16038     16037     16039     16037     16040     16040     16041
     16040     16042     16040     16043     16043     16044     16043     16045
     16043     16046     16046     16047     16046     16048     16046     16049
     16049     16050     16049     16051     16049     16052     16052     16053
     16052     16054     16054     16055     16054     16056     16056     16057
     16056     16058     16056     16059     16059     16060     16059     16061
     16059     16062     16062     16063     16062     16064     16062     16065
     16065     16066     16065     16067     16065     16068     16068     16069
     16068     16070     16068     16071     16071     16072     16071     16073
     16071     16074     16028     16029     16029     16031     16029     16030
     16031     16032     16031     16033     16031     16075     16075     16076
     16075     16077     16075     16078     16078     16079     16078     16080
     16078     16081     16081     16082     16081     16083     16081     16084
     16084     16085     16084     16086     16084     16087     16087     16088
     16087     16089     16087     16090     16090     16091     16090     16092
     16090     16093     16093     16094     16093     16095     16093     16096
     16096     16097     16096     16098     16096     16099     16099     16100
     16099     16101     16099     16102     16102     16103     16102     16104
     16102     16105     16105     16106     16105     16107     16105     16108
     16108     16109     16108     16110     16108     16111     16111     16112
     16111     16113     16111     16114     16114     16115     16114     16116
     16114     16117     16118     16119     16118     16120     16118     16121
     16118     16122     16122     16123     16122     16124     16122     16125
     16125     16126     16125     16127     16125     16132     16132     16128
     16128     16131     16128     16129     16128     16130     16133     16134
     16133     16135     16133     16136     16133     16131     16136     16137
     16136     16144     16136     16138     16144     16145     16144     16146
     16144     16147     16138     16139     16139     16141     16139     16140
     16141     16142     16141     16143     16141     16153     16153     16154
     16153     16155     16153     16156     16156     16157     16156     16158
     16156     16159     16159     16160     16159     16161     16159     16162
     16162     16163     16162     16164     16162     16165     16165     16166
     16165     16167     16165     16168     16168     16169     16168     16170
     16168     16171     16171     16172     16171     16176     16171     16173
     16176     16177     16176     16178     16176     16173     16178     16179
     16178     16180     16178     16181     16181     16182     16181     16183
     16181     16184     16184     16185     16184     16186     16184     16187
     16187     16188     16187     16189     16187     16190     16190     16191
     16190     16192     16190     16193     16193     16194     16193     16195
     16193     16196     16173     16174     16173     16175     16147     16148
     16148     16150     16148     16149     16150     16151     16150     16152
     16150     16197     16197     16198     16197     16199     16197     16200
     16200     16201     16200     16202     16200     16203     16203     16204
     16203     16205     16203     16206     16206     16207     16206     16208
     16206     16209     16209     16210     16209     16211     16209     16212
     16212     16213     16212     16214     16212     16215     16215     16216
     16215     16217     16215     16218     16218     16219     16218     16220
     16218     16221     16221     16222     16221     16223     16221     16224
     16224     16225     16224     16226     16224     16227     16227     16228
     16227     16229     16227     16230     16230     16231     16230     16232
     16230     16233     16233     16234     16233     16235     16233     16236
     16236     16237     16236     16238     16236     16239     16240     16241
     16240     16242     16240     16243     16240     16244     16244     16245
     16244     16246     16244     16247     16247     16248     16247     16249
     16247     16254     16254     16250     16250     16253     16250     16251
     16250     16252     16255     16256     16255     16257     16255     16258
     16255     16253     16258     16259     16258     16266     16258     16260
     16266     16267     16266     16268     16266     16269     16260     16261
     16261     16263     16261     16262     16263     16264     16263     16265
     16263     16275     16275     16276     16275     16277     16275     16278
     16278     16279     16278     16280     16278     16281     16281     16282
     16281     16283     16281     16284     16284     16285     16284     16286
     16284     16287     16287     16288     16287     16289     16287     16290
     16290     16291     16290     16292     16290     16293     16293     16294
     16293     16298     16293     16295     16298     16299     16298     16300
     16298     16295     16300     16301     16300     16302     16300     16303
     16303     16304     16303     16305     16303     16306     16306     16307
     16306     16308     16306     16309     16309     16310     16309     16311
     16309     16312     16312     16313     16312     16314     16312     16315
     16315     16316     16315     16317     16315     16318     16295     16296
     16295     16297     16269     16270     16270     16272     16270     16271
     16272     16273     16272     16274     16272     16319     16319     16320
     16319     16321     16319     16322     16322     16323     16322     16324
     16322     16325     16325     16326     16325     16327     16325     16328
     16328     16329     16328     16330     16328     16331     16331     16332
     16331     16333     16331     16334     16334     16335     16334     16336
     16334     16337     16337     16338     16337     16339     16337     16340
     16340     16341     16340     16342     16340     16343     16343     16344
     16343     16345     16343     16346     16346     16347     16346     16348
     16346     16349     16349     16350     16349     16351     16349     16352
     16352     16353     16352     16354     16352     16355     16355     16356
     16355     16357     16355     16358     16359     16360     16359     16361
     16359     16362     16359     16363     16363     16364     16363     16365
     16363     16366     16366     16367     16366     16368     16366     16373
     16373     16369     16369     16372     16369     16370     16369     16371
     16374     16375     16374     16376     16374     16377     16374     16372
     16377     16378     16377     16385     16377     16379     16385     16386
     16385     16387     16385     16388     16379     16380     16380     16382
     16380     16381     16382     16383     16382     16384     16382     16394
     16394     16395     16394     16396     16394     16397     16397     16398
     16397     16399     16397     16400     16400     16401     16400     16402
     16400     16403     16403     16404     16403     16405     16403     16406
     16406     16407     16406     16408     16406     16409     16409     16410
     16409     16411     16409     16412     16412     16413     16412     16417
     16412     16414     16417     16418     16417     16419     16417     16414
     16419     16420     16419     16421     16419     16422     16422     16423
     16422     16424     16422     16425     16425     16426     16425     16427
     16425     16428     16428     16429     16428     16430     16428     16431
     16431     16432     16431     16433     16431     16434     16434     16435
     16434     16436     16434     16437     16414     16415     16414     16416
     16388     16389     16389     16391     16389     16390     16391     16392
     16391     16393     16391     16438     16438     16439     16438     16440
     16438     16441     16441     16442     16441     16443     16441     16444
     16444     16445     16444     16446     16444     16447     16447     16448
     16447     16449     16447     16450     16450     16451     16450     16452
     16450     16453     16453     16454     16453     16455     16453     16456
     16456     16457     16456     16458     16456     16459     16459     16460
     16459     16461     16459     16462     16462     16463     16462     16464
     16462     16465     16465     16466     16465     16467     16465     16468
     16468     16469     16468     16470     16468     16471     16471     16472
     16471     16473     16471     16474     16474     16475     16474     16476
     16474     16477     16477     16478     16477     16479     16477     16480
     16481     16482     16481     16483     16481     16484     16481     16485
     16485     16486     16485     16487     16485     16488     16488     16489
     16488     16490     16488     16495     16495     16491     16491     16494
     16491     16492     16491     16493     16496     16497     16496     16498
     16496     16499     16496     16494     16499     16500     16499     16507
     16499     16501     16507     16508     16507     16509     16507     16510
     16501     16502     16502     16504     16502     16503     16504     16505
     16504     16506     16504     16516     16516     16517     16516     16518
     16516     16519     16519     16520     16519     16521     16519     16522
     16522     16523     16522     16524     16522     16525     16525     16526
     16525     16527     16525     16528     16528     16529     16528     16530
     16528     16531     16531     16532     16531     16533     16531     16534
     16534     16535     16534     16539     16534     16536     16539     16540
     16539     16541     16539     16536     16541     16542     16541     16543
     16541     16544     16544     16545     16544     16546     16544     16547
     16547     16548     16547     16549     16547     16550     16550     16551
     16550     16552     16550     16553     16553     16554     16553     16555
     16553     16556     16556     16557     16556     16558     16556     16559
     16536     16537     16536     16538     16510     16511     16511     16513
     16511     16512     16513     16514     16513     16515     16513     16560
     16560     16561     16560     16562     16560     16563     16563     16564
     16563     16565     16563     16566     16566     16567     16566     16568
     16566     16569     16569     16570     16569     16571     16569     16572
     16572     16573     16572     16574     16572     16575     16575     16576
     16575     16577     16575     16578     16578     16579     16578     16580
     16578     16581     16581     16582     16581     16583     16581     16584
     16584     16585     16584     16586     16584     16587     16587     16588
     16587     16589     16587     16590     16590     16591     16590     16592
     16590     16593     16593     16594     16593     16595     16593     16596
     16596     16597     16596     16598     16596     16599     16600     16601
     16600     16602     16600     16603     16600     16604     16604     16605
     16604     16606     16604     16607     16607     16608     16607     16609
     16607     16614     16614     16610     16610     16613     16610     16611
     16610     16612     16615     16616     16615     16617     16615     16618
     16615     16613     16618     16619     16618     16626     16618     16620
     16626     16627     16626     16628     16626     16629     16620     16621
     16621     16623     16621     16622     16623     16624     16623     16625
     16623     16635     16635     16636     16635     16637     16635     16638
     16638     16639     16638     16640     16638     16641     16641     16642
     16641     16643     16641     16644     16644     16645     16644     16646
     16644     16647     16647     16648     16647     16649     16647     16650
     16650     16651     16650     16652     16650     16653     16653     16654
     16653     16655     16655     16656     16655     16657     16657     16658
     16657     16659     16657     16660     16660     16661     16660     16662
     16660     16663     16663     16664     16663     16665     16663     16666
     16666     16667     16666     16668     16666     16669     16669     16670
     16669     16671     16669     16672     16672     16673     16672     16674
     16672     16675     16629     16630     16630     16632     16630     16631
     16632     16633     16632     16634     16632     16676     16676     16677
     16676     16678     16676     16679     16679     16680     16679     16681
     16679     16682     16682     16683     16682     16684     16682     16685
     16685     16686     16685     16687     16685     16688     16688     16689
     16688     16690     16688     16691     16691     16692     16691     16693
     16691     16694     16694     16695     16694     16696     16696     16697
     16696     16698     16698     16699     16698     16700     16698     16701
     16701     16702     16701     16703     16701     16704     16704     16705
     16704     16706     16704     16707     16707     16708     16707     16709
     16707     16710     16710     16711     16710     16712     16710     16713
     16713     16714     16713     16715     16713     16716     16716     16717
     16716     16718     16716     16719     16719     16720     16719     16721
     16719     16722     16723     16724     16723     16725     16723     16726
     16723     16727     16727     16728     16727     16729     16727     16730
     16730     16731     16730     16732     16730     16737     16737     16733
     16733     16736     16733     16734     16733     16735     16738     16739
     16738     16740     16738     16741     16738     16736     16741     16742
     16741     16749     16741     16743     16749     16750     16749     16751
     16749     16752     16743     16744     16744     16746     16744     16745
     16746     16747     16746     16748     16746     16758     16758     16759
     16758     16760     16758     16761     16761     16762     16761     16763
     16761     16764     16764     16765     16764     16766     16764     16767
     16767     16768     16767     16769     16767     16770     16770     16771
     16770     16772     16770     16773     16773     16774     16773     16775
     16773     16776     16776     16777     16776     16778     16778     16779
     16778     16780     16780     16781     16780     16782     16780     16783
     16783     16784     16783     16785     16783     16786     16786     16787
     16786     16788     16786     16789     16789     16790     16789     16791
     16789     16792     16792     16793     16792     16794     16792     16795
     16795     16796     16795     16797     16795     16798     16798     16799
     16798     16800     16798     16801     16801     16802     16801     16803
     16801     16804     16752     16753     16753     16755     16753     16754
     16755     16756     16755     16757     16755     16805     16805     16806
     16805     16807     16805     16808     16808     16809     16808     16810
     16808     16811     16811     16812     16811     16813     16811     16814
     16814     16815     16814     16816     16814     16817     16817     16818
     16817     16819     16817     16820     16820     16821     16820     16822
     16820     16823     16823     16824     16823     16825     16823     16826
     16826     16827     16826     16828     16826     16829     16829     16830
     16829     16831     16829     16832     16832     16833     16832     16834
     16832     16835     16835     16836     16835     16837     16835     16838
     16838     16839     16838     16840     16838     16841     16841     16842
     16841     16843     16841     16844     16844     16845     16844     16846
     16844     16847     16848     16849     16848     16850     16848     16851
     16848     16852     16852     16853     16852     16854     16852     16855
     16855     16856     16855     16857     16855     16862     16862     16858
     16858     16861     16858     16859     16858     16860     16863     16864
     16863     16865     16863     16866     16863     16861     16866     16867
     16866     16874     16866     16868     16874     16875     16874     16876
     16874     16877     16868     16869     16869     16871     16869     16870
     16871     16872     16871     16873     16871     16883     16883     16884
     16883     16885     16883     16886     16886     16887     16886     16888
     16886     16889     16889     16890     16889     16891     16889     16892
     16892     16893     16892     16894     16892     16895     16895     16896
     16895     16897     16895     16898     16898     16899     16898     16900
     16898     16901     16901     16902     16901     16903     16903     16904
     16903     16905     16905     16906     16905     16907     16905     16908
     16908     16909     16908     16910     16908     16911     16911     16912
     16911     16913     16911     16914     16914     16915     16914     16916
     16914     16917     16917     16918     16917     16919     16917     16920
     16920     16921     16920     16922     16920     16923     16877     16878
     16878     16880     16878     16879     16880     16881     16880     16882
     16880     16924     16924     16925     16924     16926     16924     16927
     16927     16928     16927     16929     16927     16930     16930     16931
     16930     16932     16930     16933     16933     16934     16933     16935
     16933     16936     16936     16937     16936     16938     16936     16939
     16939     16940     16939     16941     16939     16942     16942     16943
     16942     16944     16944     16945     16944     16946     16946     16947
     16946     16948     16946     16949     16949     16950     16949     16951
     16949     16952     16952     16953     16952     16954     16952     16955
     16955     16956     16955     16957     16955     16958     16958     16959
     16958     16960     16958     16961     16961     16962     16961     16963
     16961     16964     16964     16965     16964     16966     16964     16967
     16967     16968     16967     16969     16967     16970     16971     16972
     16971     16973     16971     16974     16971     16975     16975     16976
     16975     16977     16975     16978     16978     16979     16978     16980
     16978     16985     16985     16981     16981     16984     16981     16982
     16981     16983     16986     16987     16986     16988     16986     16989
     16986     16984     16989     16990     16989     16997     16989     16991
     16997     16998     16997     16999     16997     17000     16991     16992
     16992     16994     16992     16993     16994     16995     16994     16996
     16994     17006     17006     17007     17006     17008     17006     17009
     17009     17010     17009     17011     17009     17012     17012     17013
     17012     17014     17012     17015     17015     17016     17015     17017
     17015     17018     17018     17019     17018     17020     17018     17021
     17021     17022     17021     17023     17021     17024     17024     17025
     17024     17029     17024     17026     17029     17030     17029     17031
     17029     17026     17031     17032     17031     17033     17031     17034
     17034     17035     17034     17036     17034     17037     17037     17038
     17037     17039     17037     17040     17040     17041     17040     17042
     17040     17043     17043     17044     17043     17045     17043     17046
     17046     17047     17046     17048     17046     17049     17026     17027
     17026     17028     17000     17001     17001     17003     17001     17002
     17003     17004     17003     17005     17003     17050     17050     17051
     17050     17052     17050     17053     17053     17054     17053     17055
     17053     17056     17056     17057     17056     17058     17056     17059
     17059     17060     17059     17061     17059     17062     17062     17063
     17062     17064     17062     17065     17065     17066     17065     17067
     17065     17068     17068     17069     17068     17070     17068     17071
     17071     17072     17071     17073     17071     17074     17074     17075
     17074     17076     17074     17077     17077     17078     17077     17079
     17077     17080     17080     17081     17080     17082     17080     17083
     17083     17084     17083     17085     17083     17086     17086     17087
     17086     17088     17086     17089     17089     17090     17089     17091
     17089     17092     17093     17094     17093     17095     17093     17096
     17093     17097     17097     17098     17097     17099     17097     17100
     17100     17101     17100     17102     17100     17107     17107     17103
     17103     17106     17103     17104     17103     17105     17108     17109
     17108     17110     17108     17111     17108     17106     17111     17112
     17111     17119     17111     17113     17119     17120     17119     17121
     17119     17122     17113     17114     17114     17116     17114     17115
     17116     17117     17116     17118     17116     17128     17128     17129
     17128     17130     17128     17131     17131     17132     17131     17133
     17131     17134     17134     17135     17134     17136     17134     17137
     17137     17138     17137     17139     17137     17140     17140     17141
     17140     17142     17140     17143     17143     17144     17143     17145
     17143     17146     17146     17147     17146     17148     17148     17149
     17148     17150     17150     17151     17150     17152     17150     17153
     17153     17154     17153     17155     17153     17156     17156     17157
     17156     17158     17156     17159     17159     17160     17159     17161
     17159     17162     17162     17163     17162     17164     17162     17165
     17165     17166     17165     17167     17165     17168     17168     17169
     17168     17170     17168     17171     17171     17172     17171     17173
     17171     17174     17122     17123     17123     17125     17123     17124
     17125     17126     17125     17127     17125     17175     17175     17176
     17175     17177     17175     17178     17178     17179     17178     17180
     17178     17181     17181     17182     17181     17183     17181     17184
     17184     17185     17184     17186     17184     17187     17187     17188
     17187     17189     17187     17190     17190     17191     17190     17192
     17190     17193     17193     17194     17193     17195     17193     17196
     17196     17197     17196     17198     17196     17199     17199     17200
     17199     17201     17199     17202     17202     17203     17202     17204
     17202     17205     17205     17206     17205     17207     17205     17208
     17208     17209     17208     17210     17208     17211     17211     17212
     17211     17213     17211     17214     17214     17215     17214     17216
     17214     17217     17218     17219     17218     17220     17218     17221
     17218     17222     17222     17223     17222     17224     17222     17225
     17225     17226     17225     17227     17225     17232     17232     17228
     17228     17231     17228     17229     17228     17230     17233     17234
     17233     17235     17233     17236     17233     17231     17236     17237
     17236     17244     17236     17238     17244     17245     17244     17246
     17244     17247     17238     17239     17239     17241     17239     17240
     17241     17242     17241     17243     17241     17253     17253     17254
     17253     17255     17253     17256     17256     17257     17256     17258
     17256     17259     17259     17260     17259     17261     17259     17262
     17262     17263     17262     17264     17262     17265     17265     17266
     17265     17267     17265     17268     17268     17269     17268     17270
     17268     17271     17271     17272     17271     17276     17271     17273
     17276     17277     17276     17278     17276     17273     17278     17279
     17278     17280     17278     17281     17281     17282     17281     17283
     17281     17284     17284     17285     17284     17286     17284     17287
     17287     17288     17287     17289     17287     17290     17290     17291
     17290     17292     17290     17293     17293     17294     17293     17295
     17293     17296     17273     17274     17273     17275     17247     17248
     17248     17250     17248     17249     17250     17251     17250     17252
     17250     17297     17297     17298     17297     17299     17297     17300
     17300     17301     17300     17302     17300     17303     17303     17304
     17303     17305     17303     17306     17306     17307     17306     17308
     17306     17309     17309     17310     17309     17311     17309     17312
     17312     17313     17312     17314     17312     17315     17315     17316
     17315     17317     17315     17318     17318     17319     17318     17320
     17318     17321     17321     17322     17321     17323     17321     17324
     17324     17325     17324     17326     17324     17327     17327     17328
     17327     17329     17327     17330     17330     17331     17330     17332
     17330     17333     17333     17334     17333     17335     17333     17336
     17336     17337     17336     17338     17336     17339     17344     17343
     17343     17340     17340     17341     17340     17342     17340     17345
     17348     17347     17347     17345     17345     17346     17345     17349
     17349     17350     17349     17351     17349     17356     17356     17352
     17352     17355     17352     17353     17352     17354     17357     17358
     17357     17359     17357     17360     17357     17355     17360     17361
     17360     17368     17360     17362     17368     17369     17368     17370
     17368     17371     17362     17363     17363     17365     17363     17364
     17365     17366     17365     17367     17365     17377     17377     17378
     17377     17379     17377     17380     17380     17381     17380     17382
     17380     17383     17383     17384     17383     17385     17383     17386
     17386     17387     17386     17388     17386     17389     17389     17390
     17389     17391     17389     17392     17392     17393     17392     17394
     17392     17395     17395     17396     17395     17400     17395     17397
     17400     17401     17400     17402     17400     17397     17402     17403
     17402     17404     17402     17405     17405     17406     17405     17407
     17405     17408     17408     17409     17408     17410     17408     17411
     17411     17412     17411     17413     17411     17414     17414     17415
     17414     17416     17414     17417     17417     17418     17417     17419
     17417     17420     17397     17398     17397     17399     17371     17372
     17372     17374     17372     17373     17374     17375     17374     17376
     17374     17421     17421     17422     17421     17423     17421     17424
     17424     17425     17424     17426     17424     17427     17427     17428
     17427     17429     17427     17430     17430     17431     17430     17432
     17430     17433     17433     17434     17433     17435     17433     17436
     17436     17437     17436     17438     17436     17439     17439     17440
     17439     17441     17439     17442     17442     17443     17442     17444
     17442     17445     17445     17446     17445     17447     17445     17448
     17448     17449     17448     17450     17448     17451     17451     17452
     17451     17453     17451     17454     17454     17455     17454     17456
     17454     17457     17457     17458     17457     17459     17457     17460
     17460     17461     17460     17462     17460     17463     17464     17465
     17464     17466     17464     17467     17464     17468     17468     17469
     17468     17470     17468     17471     17471     17472     17471     17473
     17471     17478     17478     17474     17474     17477     17474     17475
     17474     17476     17479     17480     17479     17481     17479     17482
     17479     17477     17482     17483     17482     17490     17482     17484
     17490     17491     17490     17492     17490     17493     17484     17485
     17485     17487     17485     17486     17487     17488     17487     17489
     17487     17499     17499     17500     17499     17501     17499     17502
     17502     17503     17502     17504     17502     17505     17505     17506
     17505     17507     17505     17508     17508     17509     17508     17510
     17508     17511     17511     17512     17511     17513     17511     17514
     17514     17515     17514     17516     17514     17517     17517     17518
     17517     17522     17517     17519     17522     17523     17522     17524
     17522     17519     17524     17525     17524     17526     17524     17527
     17527     17528     17527     17529     17527     17530     17530     17531
     17530     17532     17530     17533     17533     17534     17533     17535
     17533     17536     17536     17537     17536     17538     17536     17539
     17539     17540     17539     17541     17539     17542     17519     17520
     17519     17521     17493     17494     17494     17496     17494     17495
     17496     17497     17496     17498     17496     17543     17543     17544
     17543     17545     17543     17546     17546     17547     17546     17548
     17546     17549     17549     17550     17549     17551     17549     17552
     17552     17553     17552     17554     17552     17555     17555     17556
     17555     17557     17555     17558     17558     17559     17558     17560
     17558     17561     17561     17562     17561     17563     17561     17564
     17564     17565     17564     17566     17564     17567     17567     17568
     17567     17569     17567     17570     17570     17571     17570     17572
     17570     17573     17573     17574     17573     17575     17573     17576
     17576     17577     17576     17578     17576     17579     17579     17580
     17579     17581     17579     17582     17582     17583     17582     17584
     17582     17585     17590     17589     17589     17586     17586     17587
     17586     17588     17586     17591     17594     17593     17593     17591
     17591     17592     17591     17595     17595     17596     17595     17597
     17595     17602     17602     17598     17598     17601     17598     17599
     17598     17600     17603     17604     17603     17605     17603     17606
     17603     17601     17606     17607     17606     17614     17606     17608
     17614     17615     17614     17616     17614     17617     17608     17609
     17609     17611     17609     17610     17611     17612     17611     17613
     17611     17623     17623     17624     17623     17625     17623     17626
     17626     17627     17626     17628     17626     17629     17629     17630
     17629     17631     17629     17632     17632     17633     17632     17634
     17632     17635     17635     17636     17635     17637     17635     17638
     17638     17639     17638     17640     17638     17641     17641     17642
     17641     17646     17641     17643     17646     17647     17646     17648
     17646     17643     17648     17649     17648     17650     17648     17651
     17651     17652     17651     17653     17651     17654     17654     17655
     17654     17656     17654     17657     17657     17658     17657     17659
     17657     17660     17660     17661     17660     17662     17660     17663
     17663     17664     17663     17665     17663     17666     17643     17644
     17643     17645     17617     17618     17618     17620     17618     17619
     17620     17621     17620     17622     17620     17667     17667     17668
     17667     17669     17667     17670     17670     17671     17670     17672
     17670     17673     17673     17674     17673     17675     17673     17676
     17676     17677     17676     17678     17676     17679     17679     17680
     17679     17681     17679     17682     17682     17683     17682     17684
     17682     17685     17685     17686     17685     17687     17685     17688
     17688     17689     17688     17690     17688     17691     17691     17692
     17691     17693     17691     17694     17694     17695     17694     17696
     17694     17697     17697     17698     17697     17699     17697     17700
     17700     17701     17700     17702     17700     17703     17703     17704
     17703     17705     17703     17706     17706     17707     17706     17708
     17706     17709     17710     17711     17710     17712     17710     17713
     17710     17714     17714     17715     17714     17716     17714     17717
     17717     17718     17717     17719     17717     17724     17724     17720
     17720     17723     17720     17721     17720     17722     17725     17726
     17725     17727     17725     17728     17725     17723     17728     17729
     17728     17736     17728     17730     17736     17737     17736     17738
     17736     17739     17730     17731     17731     17733     17731     17732
     17733     17734     17733     17735     17733     17745     17745     17746
     17745     17747     17745     17748     17748     17749     17748     17750
     17748     17751     17751     17752     17751     17753     17751     17754
     17754     17755     17754     17756     17754     17757     17757     17758
     17757     17759     17757     17760     17760     17761     17760     17762
     17760     17763     17763     17764     17763     17768     17763     17765
     17768     17769     17768     17770     17768     17765     17770     17771
     17770     17772     17770     17773     17773     17774     17773     17775
     17773     17776     17776     17777     17776     17778     17776     17779
     17779     17780     17779     17781     17779     17782     17782     17783
     17782     17784     17782     17785     17785     17786     17785     17787
     17785     17788     17765     17766     17765     17767     17739     17740
     17740     17742     17740     17741     17742     17743     17742     17744
     17742     17789     17789     17790     17789     17791     17789     17792
     17792     17793     17792     17794     17792     17795     17795     17796
     17795     17797     17795     17798     17798     17799     17798     17800
     17798     17801     17801     17802     17801     17803     17801     17804
     17804     17805     17804     17806     17804     17807     17807     17808
     17807     17809     17807     17810     17810     17811     17810     17812
     17810     17813     17813     17814     17813     17815     17813     17816
     17816     17817     17816     17818     17816     17819     17819     17820
     17819     17821     17819     17822     17822     17823     17822     17824
     17822     17825     17825     17826     17825     17827     17825     17828
     17828     17829     17828     17830     17828     17831     17832     17833
     17832     17834     17832     17835     17832     17836     17836     17837
     17836     17838     17836     17839     17839     17840     17839     17841
     17839     17846     17846     17842     17842     17845     17842     17843
     17842     17844     17847     17848     17847     17849     17847     17850
     17847     17845     17850     17851     17850     17858     17850     17852
     17858     17859     17858     17860     17858     17861     17852     17853
     17853     17855     17853     17854     17855     17856     17855     17857
     17855     17867     17867     17868     17867     17869     17867     17870
     17870     17871     17870     17872     17870     17873     17873     17874
     17873     17875     17873     17876     17876     17877     17876     17878
     17876     17879     17879     17880     17879     17881     17879     17882
     17882     17883     17882     17884     17882     17885     17885     17886
     17885     17890     17885     17887     17890     17891     17890     17892
     17890     17887     17892     17893     17892     17894     17892     17895
     17895     17896     17895     17897     17895     17898     17898     17899
     17898     17900     17898     17901     17901     17902     17901     17903
     17901     17904     17904     17905     17904     17906     17904     17907
     17907     17908     17907     17909     17907     17910     17887     17888
     17887     17889     17861     17862     17862     17864     17862     17863
     17864     17865     17864     17866     17864     17911     17911     17912
     17911     17913     17911     17914     17914     17915     17914     17916
     17914     17917     17917     17918     17917     17919     17917     17920
     17920     17921     17920     17922     17920     17923     17923     17924
     17923     17925     17923     17926     17926     17927     17926     17928
     17926     17929     17929     17930     17929     17931     17929     17932
     17932     17933     17932     17934     17932     17935     17935     17936
     17935     17937     17935     17938     17938     17939     17938     17940
     17938     17941     17941     17942     17941     17943     17941     17944
     17944     17945     17944     17946     17944     17947     17947     17948
     17947     17949     17947     17950     17951     17952     17951     17953
     17951     17954     17951     17955     17955     17956     17955     17957
     17955     17958     17958     17959     17958     17960     17958     17965
     17965     17961     17961     17964     17961     17962     17961     17963
     17966     17967     17966     17968     17966     17969     17966     17964
     17969     17970     17969     17977     17969     17971     17977     17978
     17977     17979     17977     17980     17971     17972     17972     17974
     17972     17973     17974     17975     17974     17976     17974     17986
     17986     17987     17986     17988     17986     17989     17989     17990
     17989     17991     17989     17992     17992     17993     17992     17994
     17992     17995     17995     17996     17995     17997     17995     17998
     17998     17999     17998     18000     17998     18001     18001     18002
     18001     18003     18001     18004     18004     18005     18004     18009
     18004     18006     18009     18010     18009     18011     18009     18006
     18011     18012     18011     18013     18011     18014     18014     18015
     18014     18016     18014     18017     18017     18018     18017     18019
     18017     18020     18020     18021     18020     18022     18020     18023
     18023     18024     18023     18025     18023     18026     18026     18027
     18026     18028     18026     18029     18006     18007     18006     18008
     17980     17981     17981     17983     17981     17982     17983     17984
     17983     17985     17983     18030     18030     18031     18030     18032
     18030     18033     18033     18034     18033     18035     18033     18036
     18036     18037     18036     18038     18036     18039     18039     18040
     18039     18041     18039     18042     18042     18043     18042     18044
     18042     18045     18045     18046     18045     18047     18045     18048
     18048     18049     18048     18050     18048     18051     18051     18052
     18051     18053     18051     18054     18054     18055     18054     18056
     18054     18057     18057     18058     18057     18059     18057     18060
     18060     18061     18060     18062     18060     18063     18063     18064
     18063     18065     18063     18066     18066     18067     18066     18068
     18066     18069     18070     18071     18070     18072     18070     18073
     18070     18074     18074     18075     18074     18076     18074     18077
     18077     18078     18077     18079     18077     18084     18084     18080
     18080     18083     18080     18081     18080     18082     18085     18086
     18085     18087     18085     18088     18085     18083     18088     18089
     18088     18096     18088     18090     18096     18097     18096     18098
     18096     18099     18090     18091     18091     18093     18091     18092
     18093     18094     18093     18095     18093     18105     18105     18106
     18105     18107     18105     18108     18108     18109     18108     18110
     18108     18111     18111     18112     18111     18113     18111     18114
     18114     18115     18114     18116     18114     18117     18117     18118
     18117     18119     18117     18120     18120     18121     18120     18122
     18120     18123     18123     18124     18123     18128     18123     18125
     18128     18129     18128     18130     18128     18125     18130     18131
     18130     18132     18130     18133     18133     18134     18133     18135
     18133     18136     18136     18137     18136     18138     18136     18139
     18139     18140     18139     18141     18139     18142     18142     18143
     18142     18144     18142     18145     18145     18146     18145     18147
     18145     18148     18125     18126     18125     18127     18099     18100
     18100     18102     18100     18101     18102     18103     18102     18104
     18102     18149     18149     18150     18149     18151     18149     18152
     18152     18153     18152     18154     18152     18155     18155     18156
     18155     18157     18155     18158     18158     18159     18158     18160
     18158     18161     18161     18162     18161     18163     18161     18164
     18164     18165     18164     18166     18164     18167     18167     18168
     18167     18169     18167     18170     18170     18171     18170     18172
     18170     18173     18173     18174     18173     18175     18173     18176
     18176     18177     18176     18178     18176     18179     18179     18180
     18179     18181     18179     18182     18182     18183     18182     18184
     18182     18185     18185     18186     18185     18187     18185     18188
     18188     18189     18188     18190     18188     18191     18192     18193
     18192     18194     18192     18195     18192     18196     18196     18197
     18196     18198     18196     18199     18199     18200     18199     18201
     18199     18206     18206     18202     18202     18205     18202     18203
     18202     18204     18207     18208     18207     18209     18207     18210
     18207     18205     18210     18211     18210     18218     18210     18212
     18218     18219     18218     18220     18218     18221     18212     18213
     18213     18215     18213     18214     18215     18216     18215     18217
     18215     18227     18227     18228     18227     18229     18227     18230
     18230     18231     18230     18232     18230     18233     18233     18234
     18233     18235     18233     18236     18236     18237     18236     18238
     18236     18239     18239     18240     18239     18241     18239     18242
     18242     18243     18242     18244     18242     18245     18245     18246
     18245     18250     18245     18247     18250     18251     18250     18252
     18250     18247     18252     18253     18252     18254     18252     18255
     18255     18256     18255     18257     18255     18258     18258     18259
     18258     18260     18258     18261     18261     18262     18261     18263
     18261     18264     18264     18265     18264     18266     18264     18267
     18267     18268     18267     18269     18267     18270     18247     18248
     18247     18249     18221     18222     18222     18224     18222     18223
     18224     18225     18224     18226     18224     18271     18271     18272
     18271     18273     18271     18274     18274     18275     18274     18276
     18274     18277     18277     18278     18277     18279     18277     18280
     18280     18281     18280     18282     18280     18283     18283     18284
     18283     18285     18283     18286     18286     18287     18286     18288
     18286     18289     18289     18290     18289     18291     18289     18292
     18292     18293     18292     18294     18292     18295     18295     18296
     18295     18297     18295     18298     18298     18299     18298     18300
     18298     18301     18301     18302     18301     18303     18301     18304
     18304     18305     18304     18306     18304     18307     18307     18308
     18307     18309     18307     18310     18310     18311     18310     18312
     18310     18313     18314     18315     18314     18316     18314     18317
     18314     18318     18318     18319     18318     18320     18318     18321
     18321     18322     18321     18323     18321     18328     18328     18324
     18324     18327     18324     18325     18324     18326     18329     18330
     18329     18331     18329     18332     18329     18327     18332     18333
     18332     18340     18332     18334     18340     18341     18340     18342
     18340     18343     18334     18335     18335     18337     18335     18336
     18337     18338     18337     18339     18337     18349     18349     18350
     18349     18351     18349     18352     18352     18353     18352     18354
     18352     18355     18355     18356     18355     18357     18355     18358
     18358     18359     18358     18360     18358     18361     18361     18362
     18361     18363     18361     18364     18364     18365     18364     18366
     18364     18367     18367     18368     18367     18372     18367     18369
     18372     18373     18372     18374     18372     18369     18374     18375
     18374     18376     18374     18377     18377     18378     18377     18379
     18377     18380     18380     18381     18380     18382     18380     18383
     18383     18384     18383     18385     18383     18386     18386     18387
     18386     18388     18386     18389     18389     18390     18389     18391
     18389     18392     18369     18370     18369     18371     18343     18344
     18344     18346     18344     18345     18346     18347     18346     18348
     18346     18393     18393     18394     18393     18395     18393     18396
     18396     18397     18396     18398     18396     18399     18399     18400
     18399     18401     18399     18402     18402     18403     18402     18404
     18402     18405     18405     18406     18405     18407     18405     18408
     18408     18409     18408     18410     18408     18411     18411     18412
     18411     18413     18411     18414     18414     18415     18414     18416
     18414     18417     18417     18418     18417     18419     18417     18420
     18420     18421     18420     18422     18420     18423     18423     18424
     18423     18425     18423     18426     18426     18427     18426     18428
     18426     18429     18429     18430     18429     18431     18429     18432
     18432     18433     18432     18434     18432     18435     18440     18439
     18439     18436     18436     18437     18436     18438     18436     18441
     18444     18443     18443     18441     18441     18442     18441     18445
     18445     18446     18445     18447     18445     18452     18452     18448
     18448     18451     18448     18449     18448     18450     18453     18454
     18453     18455     18453     18456     18453     18451     18456     18457
     18456     18464     18456     18458     18464     18465     18464     18466
     18464     18467     18458     18459     18459     18461     18459     18460
     18461     18462     18461     18463     18461     18473     18473     18474
     18473     18475     18473     18476     18476     18477     18476     18478
     18476     18479     18479     18480     18479     18481     18479     18482
     18482     18483     18482     18484     18482     18485     18485     18486
     18485     18487     18485     18488     18488     18489     18488     18490
     18488     18491     18491     18492     18491     18493     18493     18494
     18493     18495     18495     18496     18495     18497     18495     18498
     18498     18499     18498     18500     18498     18501     18501     18502
     18501     18503     18501     18504     18504     18505     18504     18506
     18504     18507     18507     18508     18507     18509     18507     18510
     18510     18511     18510     18512     18510     18513     18467     18468
     18468     18470     18468     18469     18470     18471     18470     18472
     18470     18514     18514     18515     18514     18516     18514     18517
     18517     18518     18517     18519     18517     18520     18520     18521
     18520     18522     18520     18523     18523     18524     18523     18525
     18523     18526     18526     18527     18526     18528     18526     18529
     18529     18530     18529     18531     18529     18532     18532     18533
     18532     18534     18532     18535     18535     18536     18535     18537
     18535     18538     18538     18539     18538     18540     18538     18541
     18541     18542     18541     18543     18541     18544     18544     18545
     18544     18546     18544     18547     18547     18548     18547     18549
     18547     18550     18550     18551     18550     18552     18550     18553
     18553     18554     18553     18555     18553     18556     18557     18558
     18557     18559     18557     18560     18557     18561     18561     18562
     18561     18563     18561     18564     18564     18565     18564     18566
     18564     18571     18571     18567     18567     18570     18567     18568
     18567     18569     18572     18573     18572     18574     18572     18575
     18572     18570     18575     18576     18575     18583     18575     18577
     18583     18584     18583     18585     18583     18586     18577     18578
     18578     18580     18578     18579     18580     18581     18580     18582
     18580     18592     18592     18593     18592     18594     18592     18595
     18595     18596     18595     18597     18595     18598     18598     18599
     18598     18600     18598     18601     18601     18602     18601     18603
     18601     18604     18604     18605     18604     18606     18604     18607
     18607     18608     18607     18609     18607     18610     18610     18611
     18610     18612     18612     18613     18612     18614     18614     18615
     18614     18616     18614     18617     18617     18618     18617     18619
     18617     18620     18620     18621     18620     18622     18620     18623
     18623     18624     18623     18625     18623     18626     18626     18627
     18626     18628     18626     18629     18629     18630     18629     18631
     18629     18632     18632     18633     18632     18634     18632     18635
     18635     18636     18635     18637     18635     18638     18586     18587
     18587     18589     18587     18588     18589     18590     18589     18591
     18589     18639     18639     18640     18639     18641     18639     18642
     18642     18643     18642     18644     18642     18645     18645     18646
     18645     18647     18645     18648     18648     18649     18648     18650
     18648     18651     18651     18652     18651     18653     18651     18654
     18654     18655     18654     18656     18654     18657     18657     18658
     18657     18659     18657     18660     18660     18661     18660     18662
     18660     18663     18663     18664     18663     18665     18663     18666
     18666     18667     18666     18668     18666     18669     18669     18670
     18669     18671     18669     18672     18672     18673     18672     18674
     18672     18675     18675     18676     18675     18677     18675     18678
     18678     18679     18678     18680     18678     18681     18682     18683
     18682     18684     18682     18685     18682     18686     18686     18687
     18686     18688     18686     18689     18689     18690     18689     18691
     18689     18696     18696     18692     18692     18695     18692     18693
     18692     18694     18697     18698     18697     18699     18697     18700
     18697     18695     18700     18701     18700     18708     18700     18702
     18708     18709     18708     18710     18708     18711     18702     18703
     18703     18705     18703     18704     18705     18706     18705     18707
     18705     18717     18717     18718     18717     18719     18717     18720
     18720     18721     18720     18722     18720     18723     18723     18724
     18723     18725     18723     18726     18726     18727     18726     18728
     18726     18729     18729     18730     18729     18731     18729     18732
     18732     18733     18732     18734     18732     18735     18735     18736
     18735     18740     18735     18737     18740     18741     18740     18742
     18740     18737     18742     18743     18742     18744     18742     18745
     18745     18746     18745     18747     18745     18748     18748     18749
     18748     18750     18748     18751     18751     18752     18751     18753
     18751     18754     18754     18755     18754     18756     18754     18757
     18757     18758     18757     18759     18757     18760     18737     18738
     18737     18739     18711     18712     18712     18714     18712     18713
     18714     18715     18714     18716     18714     18761     18761     18762
     18761     18763     18761     18764     18764     18765     18764     18766
     18764     18767     18767     18768     18767     18769     18767     18770
     18770     18771     18770     18772     18770     18773     18773     18774
     18773     18775     18773     18776     18776     18777     18776     18778
     18776     18779     18779     18780     18779     18781     18779     18782
     18782     18783     18782     18784     18782     18785     18785     18786
     18785     18787     18785     18788     18788     18789     18788     18790
     18788     18791     18791     18792     18791     18793     18791     18794
     18794     18795     18794     18796     18794     18797     18797     18798
     18797     18799     18797     18800     18800     18801     18800     18802
     18800     18803     18804     18805     18804     18806     18804     18807
     18804     18808     18808     18809     18808     18810     18808     18811
     18811     18812     18811     18813     18811     18818     18818     18814
     18814     18817     18814     18815     18814     18816     18819     18820
     18819     18821     18819     18822     18819     18817     18822     18823
     18822     18830     18822     18824     18830     18831     18830     18832
     18830     18833     18824     18825     18825     18827     18825     18826
     18827     18828     18827     18829     18827     18839     18839     18840
     18839     18841     18839     18842     18842     18843     18842     18844
     18842     18845     18845     18846     18845     18847     18845     18848
     18848     18849     18848     18850     18848     18851     18851     18852
     18851     18853     18851     18854     18854     18855     18854     18856
     18854     18857     18857     18858     18857     18862     18857     18859
     18862     18863     18862     18864     18862     18859     18864     18865
     18864     18866     18864     18867     18867     18868     18867     18869
     18867     18870     18870     18871     18870     18872     18870     18873
     18873     18874     18873     18875     18873     18876     18876     18877
     18876     18878     18876     18879     18879     18880     18879     18881
     18879     18882     18859     18860     18859     18861     18833     18834
     18834     18836     18834     18835     18836     18837     18836     18838
     18836     18883     18883     18884     18883     18885     18883     18886
     18886     18887     18886     18888     18886     18889     18889     18890
     18889     18891     18889     18892     18892     18893     18892     18894
     18892     18895     18895     18896     18895     18897     18895     18898
     18898     18899     18898     18900     18898     18901     18901     18902
     18901     18903     18901     18904     18904     18905     18904     18906
     18904     18907     18907     18908     18907     18909     18907     18910
     18910     18911     18910     18912     18910     18913     18913     18914
     18913     18915     18913     18916     18916     18917     18916     18918
     18916     18919     18919     18920     18919     18921     18919     18922
     18923     18924     18923     18925     18923     18926     18923     18927
     18927     18928     18927     18929     18927     18930     18930     18931
     18930     18932     18930     18937     18937     18933     18933     18936
     18933     18934     18933     18935     18938     18939     18938     18940
     18938     18941     18938     18936     18941     18942     18941     18949
     18941     18943     18949     18950     18949     18951     18949     18952
     18943     18944     18944     18946     18944     18945     18946     18947
     18946     18948     18946     18958     18958     18959     18958     18960
     18958     18961     18961     18962     18961     18963     18961     18964
     18964     18965     18964     18966     18964     18967     18967     18968
     18967     18969     18967     18970     18970     18971     18970     18972
     18970     18973     18973     18974     18973     18975     18973     18976
     18976     18977     18976     18981     18976     18978     18981     18982
     18981     18983     18981     18978     18983     18984     18983     18985
     18983     18986     18986     18987     18986     18988     18986     18989
     18989     18990     18989     18991     18989     18992     18992     18993
     18992     18994     18992     18995     18995     18996     18995     18997
     18995     18998     18998     18999     18998     19000     18998     19001
     18978     18979     18978     18980     18952     18953     18953     18955
     18953     18954     18955     18956     18955     18957     18955     19002
     19002     19003     19002     19004     19002     19005     19005     19006
     19005     19007     19005     19008     19008     19009     19008     19010
     19008     19011     19011     19012     19011     19013     19011     19014
     19014     19015     19014     19016     19014     19017     19017     19018
     19017     19019     19017     19020     19020     19021     19020     19022
     19020     19023     19023     19024     19023     19025     19023     19026
     19026     19027     19026     19028     19026     19029     19029     19030
     19029     19031     19029     19032     19032     19033     19032     19034
     19032     19035     19035     19036     19035     19037     19035     19038
     19038     19039     19038     19040     19038     19041     19041     19042
     19041     19043     19041     19044     19045     19046     19045     19047
     19045     19048     19045     19049     19049     19050     19049     19051
     19049     19052     19052     19053     19052     19054     19052     19059
     19059     19055     19055     19058     19055     19056     19055     19057
     19060     19061     19060     19062     19060     19063     19060     19058
     19063     19064     19063     19071     19063     19065     19071     19072
     19071     19073     19071     19074     19065     19066     19066     19068
     19066     19067     19068     19069     19068     19070     19068     19080
     19080     19081     19080     19082     19080     19083     19083     19084
     19083     19085     19083     19086     19086     19087     19086     19088
     19086     19089     19089     19090     19089     19091     19089     19092
     19092     19093     19092     19094     19092     19095     19095     19096
     19095     19097     19095     19098     19098     19099     19098     19103
     19098     19100     19103     19104     19103     19105     19103     19100
     19105     19106     19105     19107     19105     19108     19108     19109
     19108     19110     19108     19111     19111     19112     19111     19113
     19111     19114     19114     19115     19114     19116     19114     19117
     19117     19118     19117     19119     19117     19120     19120     19121
     19120     19122     19120     19123     19100     19101     19100     19102
     19074     19075     19075     19077     19075     19076     19077     19078
     19077     19079     19077     19124     19124     19125     19124     19126
     19124     19127     19127     19128     19127     19129     19127     19130
     19130     19131     19130     19132     19130     19133     19133     19134
     19133     19135     19133     19136     19136     19137     19136     19138
     19136     19139     19139     19140     19139     19141     19139     19142
     19142     19143     19142     19144     19142     19145     19145     19146
     19145     19147     19145     19148     19148     19149     19148     19150
     19148     19151     19151     19152     19151     19153     19151     19154
     19154     19155     19154     19156     19154     19157     19157     19158
     19157     19159     19157     19160     19160     19161     19160     19162
     19160     19163     19163     19164     19163     19165     19163     19166
     19171     19170     19170     19167     19167     19168     19167     19169
     19167     19172     19175     19174     19174     19172     19172     19173
     19172     19176     19176     19177     19176     19178     19176     19183
     19183     19179     19179     19182     19179     19180     19179     19181
     19184     19185     19184     19186     19184     19187     19184     19182
     19187     19188     19187     19195     19187     19189     19195     19196
     19195     19197     19195     19198     19189     19190     19190     19192
     19190     19191     19192     19193     19192     19194     19192     19204
     19204     19205     19204     19206     19204     19207     19207     19208
     19207     19209     19207     19210     19210     19211     19210     19212
     19210     19213     19213     19214     19213     19215     19213     19216
     19216     19217     19216     19218     19216     19219     19219     19220
     19219     19221     19219     19222     19222     19223     19222     19224
     19224     19225     19224     19226     19226     19227     19226     19228
     19226     19229     19229     19230     19229     19231     19229     19232
     19232     19233     19232     19234     19232     19235     19235     19236
     19235     19237     19235     19238     19238     19239     19238     19240
     19238     19241     19241     19242     19241     19243     19241     19244
     19198     19199     19199     19201     19199     19200     19201     19202
     19201     19203     19201     19245     19245     19246     19245     19247
     19245     19248     19248     19249     19248     19250     19248     19251
     19251     19252     19251     19253     19251     19254     19254     19255
     19254     19256     19254     19257     19257     19258     19257     19259
     19257     19260     19260     19261     19260     19262     19260     19263
     19263     19264     19263     19265     19263     19266     19266     19267
     19266     19268     19266     19269     19269     19270     19269     19271
     19269     19272     19272     19273     19272     19274     19272     19275
     19275     19276     19275     19277     19275     19278     19278     19279
     19278     19280     19278     19281     19281     19282     19281     19283
     19281     19284     19284     19285     19284     19286     19284     19287
     19288     19289     19288     19290     19288     19291     19288     19292
     19292     19293     19292     19294     19292     19295     19295     19296
     19295     19297     19295     19302     19302     19298     19298     19301
     19298     19299     19298     19300     19303     19304     19303     19305
     19303     19306     19303     19301     19306     19307     19306     19314
     19306     19308     19314     19315     19314     19316     19314     19317
     19308     19309     19309     19311     19309     19310     19311     19312
     19311     19313     19311     19323     19323     19324     19323     19325
     19323     19326     19326     19327     19326     19328     19326     19329
     19329     19330     19329     19331     19329     19332     19332     19333
     19332     19334     19332     19335     19335     19336     19335     19337
     19335     19338     19338     19339     19338     19340     19338     19341
     19341     19342     19341     19346     19341     19343     19346     19347
     19346     19348     19346     19343     19348     19349     19348     19350
     19348     19351     19351     19352     19351     19353     19351     19354
     19354     19355     19354     19356     19354     19357     19357     19358
     19357     19359     19357     19360     19360     19361     19360     19362
     19360     19363     19363     19364     19363     19365     19363     19366
     19343     19344     19343     19345     19317     19318     19318     19320
     19318     19319     19320     19321     19320     19322     19320     19367
     19367     19368     19367     19369     19367     19370     19370     19371
     19370     19372     19370     19373     19373     19374     19373     19375
     19373     19376     19376     19377     19376     19378     19376     19379
     19379     19380     19379     19381     19379     19382     19382     19383
     19382     19384     19382     19385     19385     19386     19385     19387
     19385     19388     19388     19389     19388     19390     19388     19391
     19391     19392     19391     19393     19391     19394     19394     19395
     19394     19396     19394     19397     19397     19398     19397     19399
     19397     19400     19400     19401     19400     19402     19400     19403
     19403     19404     19403     19405     19403     19406     19406     19407
     19406     19408     19406     19409     19410     19411     19410     19412
     19410     19413     19410     19414     19414     19415     19414     19416
     19414     19417     19417     19418     19417     19419     19417     19424
     19424     19420     19420     19423     19420     19421     19420     19422
     19425     19426     19425     19427     19425     19428     19425     19423
     19428     19429     19428     19436     19428     19430     19436     19437
     19436     19438     19436     19439     19430     19431     19431     19433
     19431     19432     19433     19434     19433     19435     19433     19445
     19445     19446     19445     19447     19445     19448     19448     19449
     19448     19450     19448     19451     19451     19452     19451     19453
     19451     19454     19454     19455     19454     19456     19454     19457
     19457     19458     19457     19459     19457     19460     19460     19461
     19460     19462     19460     19463     19463     19464     19463     19468
     19463     19465     19468     19469     19468     19470     19468     19465
     19470     19471     19470     19472     19470     19473     19473     19474
     19473     19475     19473     19476     19476     19477     19476     19478
     19476     19479     19479     19480     19479     19481     19479     19482
     19482     19483     19482     19484     19482     19485     19485     19486
     19485     19487     19485     19488     19465     19466     19465     19467
     19439     19440     19440     19442     19440     19441     19442     19443
     19442     19444     19442     19489     19489     19490     19489     19491
     19489     19492     19492     19493     19492     19494     19492     19495
     19495     19496     19495     19497     19495     19498     19498     19499
     19498     19500     19498     19501     19501     19502     19501     19503
     19501     19504     19504     19505     19504     19506     19504     19507
     19507     19508     19507     19509     19507     19510     19510     19511
     19510     19512     19510     19513     19513     19514     19513     19515
     19513     19516     19516     19517     19516     19518     19516     19519
     19519     19520     19519     19521     19519     19522     19522     19523
     19522     19524     19522     19525     19525     19526     19525     19527
     19525     19528     19528     19529     19528     19530     19528     19531
     19532     19533     19532     19534     19532     19535     19532     19536
     19536     19537     19536     19538     19536     19539     19539     19540
     19539     19541     19539     19546     19546     19542     19542     19545
     19542     19543     19542     19544     19547     19548     19547     19549
     19547     19550     19547     19545     19550     19551     19550     19558
     19550     19552     19558     19559     19558     19560     19558     19561
     19552     19553     19553     19555     19553     19554     19555     19556
     19555     19557     19555     19567     19567     19568     19567     19569
     19567     19570     19570     19571     19570     19572     19570     19573
     19573     19574     19573     19575     19573     19576     19576     19577
     19576     19578     19576     19579     19579     19580     19579     19581
     19579     19582     19582     19583     19582     19584     19582     19585
     19585     19586     19585     19590     19585     19587     19590     19591
     19590     19592     19590     19587     19592     19593     19592     19594
     19592     19595     19595     19596     19595     19597     19595     19598
     19598     19599     19598     19600     19598     19601     19601     19602
     19601     19603     19601     19604     19604     19605     19604     19606
     19604     19607     19607     19608     19607     19609     19607     19610
     19587     19588     19587     19589     19561     19562     19562     19564
     19562     19563     19564     19565     19564     19566     19564     19611
     19611     19612     19611     19613     19611     19614     19614     19615
     19614     19616     19614     19617     19617     19618     19617     19619
     19617     19620     19620     19621     19620     19622     19620     19623
     19623     19624     19623     19625     19623     19626     19626     19627
     19626     19628     19626     19629     19629     19630     19629     19631
     19629     19632     19632     19633     19632     19634     19632     19635
     19635     19636     19635     19637     19635     19638     19638     19639
     19638     19640     19638     19641     19641     19642     19641     19643
     19641     19644     19644     19645     19644     19646     19644     19647
     19647     19648     19647     19649     19647     19650     19650     19651
     19650     19652     19650     19653     19658     19657     19657     19654
     19654     19655     19654     19656     19654     19659     19662     19661
     19661     19659     19659     19660     19659     19663     19663     19664
     19663     19665     19663     19670     19670     19666     19666     19669
     19666     19667     19666     19668     19671     19672     19671     19673
     19671     19674     19671     19669     19674     19675     19674     19682
     19674     19676     19682     19683     19682     19684     19682     19685
     19676     19677     19677     19679     19677     19678     19679     19680
     19679     19681     19679     19691     19691     19692     19691     19693
     19691     19694     19694     19695     19694     19696     19694     19697
     19697     19698     19697     19699     19697     19700     19700     19701
     19700     19702     19700     19703     19703     19704     19703     19705
     19703     19706     19706     19707     19706     19708     19706     19709
     19709     19710     19709     19714     19709     19711     19714     19715
     19714     19716     19714     19711     19716     19717     19716     19718
     19716     19719     19719     19720     19719     19721     19719     19722
     19722     19723     19722     19724     19722     19725     19725     19726
     19725     19727     19725     19728     19728     19729     19728     19730
     19728     19731     19731     19732     19731     19733     19731     19734
     19711     19712     19711     19713     19685     19686     19686     19688
     19686     19687     19688     19689     19688     19690     19688     19735
     19735     19736     19735     19737     19735     19738     19738     19739
     19738     19740     19738     19741     19741     19742     19741     19743
     19741     19744     19744     19745     19744     19746     19744     19747
     19747     19748     19747     19749     19747     19750     19750     19751
     19750     19752     19750     19753     19753     19754     19753     19755
     19753     19756     19756     19757     19756     19758     19756     19759
     19759     19760     19759     19761     19759     19762     19762     19763
     19762     19764     19762     19765     19765     19766     19765     19767
     19765     19768     19768     19769     19768     19770     19768     19771
     19771     19772     19771     19773     19771     19774     19774     19775
     19774     19776     19774     19777     19778     19779     19778     19780
     19778     19781     19778     19782     19782     19783     19782     19784
     19782     19785     19785     19786     19785     19787     19785     19792
     19792     19788     19788     19791     19788     19789     19788     19790
     19793     19794     19793     19795     19793     19796     19793     19791
     19796     19797     19796     19804     19796     19798     19804     19805
     19804     19806     19804     19807     19798     19799     19799     19801
     19799     19800     19801     19802     19801     19803     19801     19813
     19813     19814     19813     19815     19813     19816     19816     19817
     19816     19818     19816     19819     19819     19820     19819     19821
     19819     19822     19822     19823     19822     19824     19822     19825
     19825     19826     19825     19827     19825     19828     19828     19829
     19828     19830     19828     19831     19831     19832     19831     19833
     19833     19834     19833     19835     19835     19836     19835     19837
     19835     19838     19838     19839     19838     19840     19838     19841
     19841     19842     19841     19843     19841     19844     19844     19845
     19844     19846     19844     19847     19847     19848     19847     19849
     19847     19850     19850     19851     19850     19852     19850     19853
     19807     19808     19808     19810     19808     19809     19810     19811
     19810     19812     19810     19854     19854     19855     19854     19856
     19854     19857     19857     19858     19857     19859     19857     19860
     19860     19861     19860     19862     19860     19863     19863     19864
     19863     19865     19863     19866     19866     19867     19866     19868
     19866     19869     19869     19870     19869     19871     19869     19872
     19872     19873     19872     19874     19874     19875     19874     19876
     19876     19877     19876     19878     19876     19879     19879     19880
     19879     19881     19879     19882     19882     19883     19882     19884
     19882     19885     19885     19886     19885     19887     19885     19888
     19888     19889     19888     19890     19888     19891     19891     19892
     19891     19893     19891     19894     19894     19895     19894     19896
     19894     19897     19897     19898     19897     19899     19897     19900
     19901     19902     19901     19903     19901     19904     19901     19905
     19905     19906     19905     19907     19905     19908     19908     19909
     19908     19910     19908     19915     19915     19911     19911     19914
     19911     19912     19911     19913     19916     19917     19916     19918
     19916     19919     19916     19914     19919     19920     19919     19927
     19919     19921     19927     19928     19927     19929     19927     19930
     19921     19922     19922     19924     19922     19923     19924     19925
     19924     19926     19924     19936     19936     19937     19936     19938
     19936     19939     19939     19940     19939     19941     19939     19942
     19942     19943     19942     19944     19942     19945     19945     19946
     19945     19947     19945     19948     19948     19949     19948     19950
     19948     19951     19951     19952     19951     19953     19951     19954
     19954     19955     19954     19959     19954     19956     19959     19960
     19959     19961     19959     19956     19961     19962     19961     19963
     19961     19964     19964     19965     19964     19966     19964     19967
     19967     19968     19967     19969     19967     19970     19970     19971
     19970     19972     19970     19973     19973     19974     19973     19975
     19973     19976     19976     19977     19976     19978     19976     19979
     19956     19957     19956     19958     19930     19931     19931     19933
     19931     19932     19933     19934     19933     19935     19933     19980
     19980     19981     19980     19982     19980     19983     19983     19984
     19983     19985     19983     19986     19986     19987     19986     19988
     19986     19989     19989     19990     19989     19991     19989     19992
     19992     19993     19992     19994     19992     19995     19995     19996
     19995     19997     19995     19998     19998     19999     19998     20000
     19998     20001     20001     20002     20001     20003     20001     20004
     20004     20005     20004     20006     20004     20007     20007     20008
     20007     20009     20007     20010     20010     20011     20010     20012
     20010     20013     20013     20014     20013     20015     20013     20016
     20016     20017     20016     20018     20016     20019     20019     20020
     20019     20021     20019     20022     20023     20024     20023     20025
     20023     20026     20023     20027     20027     20028     20027     20029
     20027     20030     20030     20031     20030     20032     20030     20037
     20037     20033     20033     20036     20033     20034     20033     20035
     20038     20039     20038     20040     20038     20041     20038     20036
     20041     20042     20041     20049     20041     20043     20049     20050
     20049     20051     20049     20052     20043     20044     20044     20046
     20044     20045     20046     20047     20046     20048     20046     20058
     20058     20059     20058     20060     20058     20061     20061     20062
     20061     20063     20061     20064     20064     20065     20064     20066
     20064     20067     20067     20068     20067     20069     20067     20070
     20070     20071     20070     20072     20070     20073     20073     20074
     20073     20075     20073     20076     20076     20077     20076     20081
     20076     20078     20081     20082     20081     20083     20081     20078
     20083     20084     20083     20085     20083     20086     20086     20087
     20086     20088     20086     20089     20089     20090     20089     20091
     20089     20092     20092     20093     20092     20094     20092     20095
     20095     20096     20095     20097     20095     20098     20098     20099
     20098     20100     20098     20101     20078     20079     20078     20080
     20052     20053     20053     20055     20053     20054     20055     20056
     20055     20057     20055     20102     20102     20103     20102     20104
     20102     20105     20105     20106     20105     20107     20105     20108
     20108     20109     20108     20110     20108     20111     20111     20112
     20111     20113     20111     20114     20114     20115     20114     20116
     20114     20117     20117     20118     20117     20119     20117     20120
     20120     20121     20120     20122     20120     20123     20123     20124
     20123     20125     20123     20126     20126     20127     20126     20128
     20126     20129     20129     20130     20129     20131     20129     20132
     20132     20133     20132     20134     20132     20135     20135     20136
     20135     20137     20135     20138     20138     20139     20138     20140
     20138     20141     20146     20145     20145     20142     20142     20143
     20142     20144     20142     20147     20150     20149     20149     20147
     20147     20148     20147     20151     20151     20152     20151     20153
     20151     20158     20158     20154     20154     20157     20154     20155
     20154     20156     20159     20160     20159     20161     20159     20162
     20159     20157     20162     20163     20162     20170     20162     20164
     20170     20171     20170     20172     20170     20173     20164     20165
     20165     20167     20165     20166     20167     20168     20167     20169
     20167     20179     20179     20180     20179     20181     20179     20182
     20182     20183     20182     20184     20182     20185     20185     20186
     20185     20187     20185     20188     20188     20189     20188     20190
     20188     20191     20191     20192     20191     20193     20191     20194
     20194     20195     20194     20196     20194     20197     20197     20198
     20197     20199     20199     20200     20199     20201     20201     20202
     20201     20203     20201     20204     20204     20205     20204     20206
     20204     20207     20207     20208     20207     20209     20207     20210
     20210     20211     20210     20212     20210     20213     20213     20214
     20213     20215     20213     20216     20216     20217     20216     20218
     20216     20219     20173     20174     20174     20176     20174     20175
     20176     20177     20176     20178     20176     20220     20220     20221
     20220     20222     20220     20223     20223     20224     20223     20225
     20223     20226     20226     20227     20226     20228     20226     20229
     20229     20230     20229     20231     20229     20232     20232     20233
     20232     20234     20232     20235     20235     20236     20235     20237
     20235     20238     20238     20239     20238     20240     20238     20241
     20241     20242     20241     20243     20241     20244     20244     20245
     20244     20246     20244     20247     20247     20248     20247     20249
     20247     20250     20250     20251     20250     20252     20250     20253
     20253     20254     20253     20255     20253     20256     20256     20257
     20256     20258     20256     20259     20259     20260     20259     20261
     20259     20262     20267     20266     20266     20263     20263     20264
     20263     20265     20263     20268     20271     20270     20270     20268
     20268     20269     20268     20272     20272     20273     20272     20274
     20272     20279     20279     20275     20275     20278     20275     20276
     20275     20277     20280     20281     20280     20282     20280     20283
     20280     20278     20283     20284     20283     20291     20283     20285
     20291     20292     20291     20293     20291     20294     20285     20286
     20286     20288     20286     20287     20288     20289     20288     20290
     20288     20300     20300     20301     20300     20302     20300     20303
     20303     20304     20303     20305     20303     20306     20306     20307
     20306     20308     20306     20309     20309     20310     20309     20311
     20309     20312     20312     20313     20312     20314     20312     20315
     20315     20316     20315     20317     20315     20318     20318     20319
     20318     20323     20318     20320     20323     20324     20323     20325
     20323     20320     20325     20326     20325     20327     20325     20328
     20328     20329     20328     20330     20328     20331     20331     20332
     20331     20333     20331     20334     20334     20335     20334     20336
     20334     20337     20337     20338     20337     20339     20337     20340
     20340     20341     20340     20342     20340     20343     20320     20321
     20320     20322     20294     20295     20295     20297     20295     20296
     20297     20298     20297     20299     20297     20344     20344     20345
     20344     20346     20344     20347     20347     20348     20347     20349
     20347     20350     20350     20351     20350     20352     20350     20353
     20353     20354     20353     20355     20353     20356     20356     20357
     20356     20358     20356     20359     20359     20360     20359     20361
     20359     20362     20362     20363     20362     20364     20362     20365
     20365     20366     20365     20367     20365     20368     20368     20369
     20368     20370     20368     20371     20371     20372     20371     20373
     20371     20374     20374     20375     20374     20376     20374     20377
     20377     20378     20377     20379     20377     20380     20380     20381
     20380     20382     20380     20383     20383     20384     20383     20385
     20383     20386     20387     20388     20387     20389     20387     20390
     20387     20391     20391     20392     20391     20393     20391     20394
     20394     20395     20394     20396     20394     20401     20401     20397
     20397     20400     20397     20398     20397     20399     20402     20403
     20402     20404     20402     20405     20402     20400     20405     20406
     20405     20413     20405     20407     20413     20414     20413     20415
     20413     20416     20407     20408     20408     20410     20408     20409
     20410     20411     20410     20412     20410     20422     20422     20423
     20422     20424     20422     20425     20425     20426     20425     20427
     20425     20428     20428     20429     20428     20430     20428     20431
     20431     20432     20431     20433     20431     20434     20434     20435
     20434     20436     20434     20437     20437     20438     20437     20439
     20437     20440     20440     20441     20440     20442     20442     20443
     20442     20444     20444     20445     20444     20446     20444     20447
     20447     20448     20447     20449     20447     20450     20450     20451
     20450     20452     20450     20453     20453     20454     20453     20455
     20453     20456     20456     20457     20456     20458     20456     20459
     20459     20460     20459     20461     20459     20462     20416     20417
     20417     20419     20417     20418     20419     20420     20419     20421
     20419     20463     20463     20464     20463     20465     20463     20466
     20466     20467     20466     20468     20466     20469     20469     20470
     20469     20471     20469     20472     20472     20473     20472     20474
     20472     20475     20475     20476     20475     20477     20475     20478
     20478     20479     20478     20480     20478     20481     20481     20482
     20481     20483     20483     20484     20483     20485     20485     20486
     20485     20487     20485     20488     20488     20489     20488     20490
     20488     20491     20491     20492     20491     20493     20491     20494
     20494     20495     20494     20496     20494     20497     20497     20498
     20497     20499     20497     20500     20500     20501     20500     20502
     20500     20503     20503     20504     20503     20505     20503     20506
     20506     20507     20506     20508     20506     20509     20510     20511
     20510     20512     20510     20513     20510     20514     20514     20515
     20514     20516     20514     20517     20517     20518     20517     20519
     20517     20524     20524     20520     20520     20523     20520     20521
     20520     20522     20525     20526     20525     20527     20525     20528
     20525     20523     20528     20529     20528     20536     20528     20530
     20536     20537     20536     20538     20536     20539     20530     20531
     20531     20533     20531     20532     20533     20534     20533     20535
     20533     20545     20545     20546     20545     20547     20545     20548
     20548     20549     20548     20550     20548     20551     20551     20552
     20551     20553     20551     20554     20554     20555     20554     20556
     20554     20557     20557     20558     20557     20559     20557     20560
     20560     20561     20560     20562     20560     20563     20563     20564
     20563     20568     20563     20565     20568     20569     20568     20570
     20568     20565     20570     20571     20570     20572     20570     20573
     20573     20574     20573     20575     20573     20576     20576     20577
     20576     20578     20576     20579     20579     20580     20579     20581
     20579     20582     20582     20583     20582     20584     20582     20585
     20585     20586     20585     20587     20585     20588     20565     20566
     20565     20567     20539     20540     20540     20542     20540     20541
     20542     20543     20542     20544     20542     20589     20589     20590
     20589     20591     20589     20592     20592     20593     20592     20594
     20592     20595     20595     20596     20595     20597     20595     20598
     20598     20599     20598     20600     20598     20601     20601     20602
     20601     20603     20601     20604     20604     20605     20604     20606
     20604     20607     20607     20608     20607     20609     20607     20610
     20610     20611     20610     20612     20610     20613     20613     20614
     20613     20615     20613     20616     20616     20617     20616     20618
     20616     20619     20619     20620     20619     20621     20619     20622
     20622     20623     20622     20624     20622     20625     20625     20626
     20625     20627     20625     20628     20628     20629     20628     20630
     20628     20631     20632     20633     20632     20634     20632     20635
     20632     20636     20636     20637     20636     20638     20636     20639
     20639     20640     20639     20641     20639     20646     20646     20642
     20642     20645     20642     20643     20642     20644     20647     20648
     20647     20649     20647     20650     20647     20645     20650     20651
     20650     20658     20650     20652     20658     20659     20658     20660
     20658     20661     20652     20653     20653     20655     20653     20654
     20655     20656     20655     20657     20655     20667     20667     20668
     20667     20669     20667     20670     20670     20671     20670     20672
     20670     20673     20673     20674     20673     20675     20673     20676
     20676     20677     20676     20678     20676     20679     20679     20680
     20679     20681     20679     20682     20682     20683     20682     20684
     20682     20685     20685     20686     20685     20690     20685     20687
     20690     20691     20690     20692     20690     20687     20692     20693
     20692     20694     20692     20695     20695     20696     20695     20697
     20695     20698     20698     20699     20698     20700     20698     20701
     20701     20702     20701     20703     20701     20704     20704     20705
     20704     20706     20704     20707     20707     20708     20707     20709
     20707     20710     20687     20688     20687     20689     20661     20662
     20662     20664     20662     20663     20664     20665     20664     20666
     20664     20711     20711     20712     20711     20713     20711     20714
     20714     20715     20714     20716     20714     20717     20717     20718
     20717     20719     20717     20720     20720     20721     20720     20722
     20720     20723     20723     20724     20723     20725     20723     20726
     20726     20727     20726     20728     20726     20729     20729     20730
     20729     20731     20729     20732     20732     20733     20732     20734
     20732     20735     20735     20736     20735     20737     20735     20738
     20738     20739     20738     20740     20738     20741     20741     20742
     20741     20743     20741     20744     20744     20745     20744     20746
     20744     20747     20747     20748     20747     20749     20747     20750
     20750     20751     20750     20752     20750     20753     20754     20755
     20754     20756     20754     20757     20754     20758     20758     20759
     20758     20760     20758     20761     20761     20762     20761     20763
     20761     20768     20768     20764     20764     20767     20764     20765
     20764     20766     20769     20770     20769     20771     20769     20772
     20769     20767     20772     20773     20772     20780     20772     20774
     20780     20781     20780     20782     20780     20783     20774     20775
     20775     20777     20775     20776     20777     20778     20777     20779
     20777     20789     20789     20790     20789     20791     20789     20792
     20792     20793     20792     20794     20792     20795     20795     20796
     20795     20797     20795     20798     20798     20799     20798     20800
     20798     20801     20801     20802     20801     20803     20801     20804
     20804     20805     20804     20806     20804     20807     20807     20808
     20807     20812     20807     20809     20812     20813     20812     20814
     20812     20809     20814     20815     20814     20816     20814     20817
     20817     20818     20817     20819     20817     20820     20820     20821
     20820     20822     20820     20823     20823     20824     20823     20825
     20823     20826     20826     20827     20826     20828     20826     20829
     20829     20830     20829     20831     20829     20832     20809     20810
     20809     20811     20783     20784     20784     20786     20784     20785
     20786     20787     20786     20788     20786     20833     20833     20834
     20833     20835     20833     20836     20836     20837     20836     20838
     20836     20839     20839     20840     20839     20841     20839     20842
     20842     20843     20842     20844     20842     20845     20845     20846
     20845     20847     20845     20848     20848     20849     20848     20850
     20848     20851     20851     20852     20851     20853     20851     20854
     20854     20855     20854     20856     20854     20857     20857     20858
     20857     20859     20857     20860     20860     20861     20860     20862
     20860     20863     20863     20864     20863     20865     20863     20866
     20866     20867     20866     20868     20866     20869     20869     20870
     20869     20871     20869     20872     20872     20873     20872     20874
     20872     20875     20876     20877     20876     20878     20876     20879
     20876     20880     20880     20881     20880     20882     20880     20883
     20883     20884     20883     20885     20883     20890     20890     20886
     20886     20889     20886     20887     20886     20888     20891     20892
     20891     20893     20891     20894     20891     20889     20894     20895
     20894     20902     20894     20896     20902     20903     20902     20904
     20902     20905     20896     20897     20897     20899     20897     20898
     20899     20900     20899     20901     20899     20911     20911     20912
     20911     20913     20911     20914     20914     20915     20914     20916
     20914     20917     20917     20918     20917     20919     20917     20920
     20920     20921     20920     20922     20920     20923     20923     20924
     20923     20925     20923     20926     20926     20927     20926     20928
     20926     20929     20929     20930     20929     20931     20931     20932
     20931     20933     20933     20934     20933     20935     20933     20936
     20936     20937     20936     20938     20936     20939     20939     20940
     20939     20941     20939     20942     20942     20943     20942     20944
     20942     20945     20945     20946     20945     20947     20945     20948
     20948     20949     20948     20950     20948     20951     20951     20952
     20951     20953     20951     20954     20954     20955     20954     20956
     20954     20957     20905     20906     20906     20908     20906     20907
     20908     20909     20908     20910     20908     20958     20958     20959
     20958     20960     20958     20961     20961     20962     20961     20963
     20961     20964     20964     20965     20964     20966     20964     20967
     20967     20968     20967     20969     20967     20970     20970     20971
     20970     20972     20970     20973     20973     20974     20973     20975
     20973     20976     20976     20977     20976     20978     20976     20979
     20979     20980     20979     20981     20979     20982     20982     20983
     20982     20984     20982     20985     20985     20986     20985     20987
     20985     20988     20988     20989     20988     20990     20988     20991
     20991     20992     20991     20993     20991     20994     20994     20995
     20994     20996     20994     20997     20997     20998     20997     20999
     20997     21000     21001     21002     21001     21003     21001     21004
     21001     21005     21005     21006     21005     21007     21005     21008
     21008     21009     21008     21010     21008     21015     21015     21011
     21011     21014     21011     21012     21011     21013     21016     21017
     21016     21018     21016     21019     21016     21014     21019     21020
     21019     21027     21019     21021     21027     21028     21027     21029
     21027     21030     21021     21022     21022     21024     21022     21023
     21024     21025     21024     21026     21024     21036     21036     21037
     21036     21038     21036     21039     21039     21040     21039     21041
     21039     21042     21042     21043     21042     21044     21042     21045
     21045     21046     21045     21047     21045     21048     21048     21049
     21048     21050     21048     21051     21051     21052     21051     21053
     21051     21054     21054     21055     21054     21056     21056     21057
     21056     21058     21058     21059     21058     21060     21058     21061
     21061     21062     21061     21063     21061     21064     21064     21065
     21064     21066     21064     21067     21067     21068     21067     21069
     21067     21070     21070     21071     21070     21072     21070     21073
     21073     21074     21073     21075     21073     21076     21076     21077
     21076     21078     21076     21079     21079     21080     21079     21081
     21079     21082     21030     21031     21031     21033     21031     21032
     21033     21034     21033     21035     21033     21083     21083     21084
     21083     21085     21083     21086     21086     21087     21086     21088
     21086     21089     21089     21090     21089     21091     21089     21092
     21092     21093     21092     21094     21092     21095     21095     21096
     21095     21097     21095     21098     21098     21099     21098     21100
     21098     21101     21101     21102     21101     21103     21101     21104
     21104     21105     21104     21106     21104     21107     21107     21108
     21107     21109     21107     21110     21110     21111     21110     21112
     21110     21113     21113     21114     21113     21115     21113     21116
     21116     21117     21116     21118     21116     21119     21119     21120
     21119     21121     21119     21122     21122     21123     21122     21124
     21122     21125     21130     21129     21129     21126     21126     21127
     21126     21128     21126     21131     21134     21133     21133     21131
     21131     21132     21131     21135     21135     21136     21135     21137
     21135     21142     21142     21138     21138     21141     21138     21139
     21138     21140     21143     21144     21143     21145     21143     21146
     21143     21141     21146     21147     21146     21154     21146     21148
     21154     21155     21154     21156     21154     21157     21148     21149
     21149     21151     21149     21150     21151     21152     21151     21153
     21151     21163     21163     21164     21163     21165     21163     21166
     21166     21167     21166     21168     21166     21169     21169     21170
     21169     21171     21169     21172     21172     21173     21172     21174
     21172     21175     21175     21176     21175     21177     21175     21178
     21178     21179     21178     21180     21178     21181     21181     21182
     21181     21183     21183     21184     21183     21185     21185     21186
     21185     21187     21185     21188     21188     21189     21188     21190
     21188     21191     21191     21192     21191     21193     21191     21194
     21194     21195     21194     21196     21194     21197     21197     21198
     21197     21199     21197     21200     21200     21201     21200     21202
     21200     21203     21157     21158     21158     21160     21158     21159
     21160     21161     21160     21162     21160     21204     21204     21205
     21204     21206     21204     21207     21207     21208     21207     21209
     21207     21210     21210     21211     21210     21212     21210     21213
     21213     21214     21213     21215     21213     21216     21216     21217
     21216     21218     21216     21219     21219     21220     21219     21221
     21219     21222     21222     21223     21222     21224     21222     21225
     21225     21226     21225     21227     21225     21228     21228     21229
     21228     21230     21228     21231     21231     21232     21231     21233
     21231     21234     21234     21235     21234     21236     21234     21237
     21237     21238     21237     21239     21237     21240     21240     21241
     21240     21242     21240     21243     21243     21244     21243     21245
     21243     21246     21247     21248     21247     21249     21247     21250
     21247     21251     21251     21252     21251     21253     21251     21254
     21254     21255     21254     21256     21254     21261     21261     21257
     21257     21260     21257     21258     21257     21259     21262     21263
     21262     21264     21262     21265     21262     21260     21265     21266
     21265     21273     21265     21267     21273     21274     21273     21275
     21273     21276     21267     21268     21268     21270     21268     21269
     21270     21271     21270     21272     21270     21282     21282     21283
     21282     21284     21282     21285     21285     21286     21285     21287
     21285     21288     21288     21289     21288     21290     21288     21291
     21291     21292     21291     21293     21291     21294     21294     21295
     21294     21296     21294     21297     21297     21298     21297     21299
     21297     21300     21300     21301     21300     21305     21300     21302
     21305     21306     21305     21307     21305     21302     21307     21308
     21307     21309     21307     21310     21310     21311     21310     21312
     21310     21313     21313     21314     21313     21315     21313     21316
     21316     21317     21316     21318     21316     21319     21319     21320
     21319     21321     21319     21322     21322     21323     21322     21324
     21322     21325     21302     21303     21302     21304     21276     21277
     21277     21279     21277     21278     21279     21280     21279     21281
     21279     21326     21326     21327     21326     21328     21326     21329
     21329     21330     21329     21331     21329     21332     21332     21333
     21332     21334     21332     21335     21335     21336     21335     21337
     21335     21338     21338     21339     21338     21340     21338     21341
     21341     21342     21341     21343     21341     21344     21344     21345
     21344     21346     21344     21347     21347     21348     21347     21349
     21347     21350     21350     21351     21350     21352     21350     21353
     21353     21354     21353     21355     21353     21356     21356     21357
     21356     21358     21356     21359     21359     21360     21359     21361
     21359     21362     21362     21363     21362     21364     21362     21365
     21365     21366     21365     21367     21365     21368     21369     21370
     21369     21371     21369     21372     21369     21373     21373     21374
     21373     21375     21373     21376     21376     21377     21376     21378
     21376     21383     21383     21379     21379     21382     21379     21380
     21379     21381     21384     21385     21384     21386     21384     21387
     21384     21382     21387     21388     21387     21395     21387     21389
     21395     21396     21395     21397     21395     21398     21389     21390
     21390     21392     21390     21391     21392     21393     21392     21394
     21392     21404     21404     21405     21404     21406     21404     21407
     21407     21408     21407     21409     21407     21410     21410     21411
     21410     21412     21410     21413     21413     21414     21413     21415
     21413     21416     21416     21417     21416     21418     21416     21419
     21419     21420     21419     21421     21419     21422     21422     21423
     21422     21427     21422     21424     21427     21428     21427     21429
     21427     21424     21429     21430     21429     21431     21429     21432
     21432     21433     21432     21434     21432     21435     21435     21436
     21435     21437     21435     21438     21438     21439     21438     21440
     21438     21441     21441     21442     21441     21443     21441     21444
     21444     21445     21444     21446     21444     21447     21424     21425
     21424     21426     21398     21399     21399     21401     21399     21400
     21401     21402     21401     21403     21401     21448     21448     21449
     21448     21450     21448     21451     21451     21452     21451     21453
     21451     21454     21454     21455     21454     21456     21454     21457
     21457     21458     21457     21459     21457     21460     21460     21461
     21460     21462     21460     21463     21463     21464     21463     21465
     21463     21466     21466     21467     21466     21468     21466     21469
     21469     21470     21469     21471     21469     21472     21472     21473
     21472     21474     21472     21475     21475     21476     21475     21477
     21475     21478     21478     21479     21478     21480     21478     21481
     21481     21482     21481     21483     21481     21484     21484     21485
     21484     21486     21484     21487     21487     21488     21487     21489
     21487     21490     21491     21492     21491     21493     21491     21494
     21491     21495     21495     21496     21495     21497     21495     21498
     21498     21499     21498     21500     21498     21505     21505     21501
     21501     21504     21501     21502     21501     21503     21506     21507
     21506     21508     21506     21509     21506     21504     21509     21510
     21509     21517     21509     21511     21517     21518     21517     21519
     21517     21520     21511     21512     21512     21514     21512     21513
     21514     21515     21514     21516     21514     21526     21526     21527
     21526     21528     21526     21529     21529     21530     21529     21531
     21529     21532     21532     21533     21532     21534     21532     21535
     21535     21536     21535     21537     21535     21538     21538     21539
     21538     21540     21538     21541     21541     21542     21541     21543
     21541     21544     21544     21545     21544     21546     21546     21547
     21546     21548     21548     21549     21548     21550     21548     21551
     21551     21552     21551     21553     21551     21554     21554     21555
     21554     21556     21554     21557     21557     21558     21557     21559
     21557     21560     21560     21561     21560     21562     21560     21563
     21563     21564     21563     21565     21563     21566     21566     21567
     21566     21568     21566     21569     21569     21570     21569     21571
     21569     21572     21520     21521     21521     21523     21521     21522
     21523     21524     21523     21525     21523     21573     21573     21574
     21573     21575     21573     21576     21576     21577     21576     21578
     21576     21579     21579     21580     21579     21581     21579     21582
     21582     21583     21582     21584     21582     21585     21585     21586
     21585     21587     21585     21588     21588     21589     21588     21590
     21588     21591     21591     21592     21591     21593     21591     21594
     21594     21595     21594     21596     21594     21597     21597     21598
     21597     21599     21597     21600     21600     21601     21600     21602
     21600     21603     21603     21604     21603     21605     21603     21606
     21606     21607     21606     21608     21606     21609     21609     21610
     21609     21611     21609     21612     21612     21613     21612     21614
     21612     21615     21616     21617     21616     21618     21616     21619
     21616     21620     21620     21621     21620     21622     21620     21623
     21623     21624     21623     21625     21623     21630     21630     21626
     21626     21629     21626     21627     21626     21628     21631     21632
     21631     21633     21631     21634     21631     21629     21634     21635
     21634     21642     21634     21636     21642     21643     21642     21644
     21642     21645     21636     21637     21637     21639     21637     21638
     21639     21640     21639     21641     21639     21651     21651     21652
     21651     21653     21651     21654     21654     21655     21654     21656
     21654     21657     21657     21658     21657     21659     21657     21660
     21660     21661     21660     21662     21660     21663     21663     21664
     21663     21665     21663     21666     21666     21667     21666     21668
     21666     21669     21669     21670     21669     21671     21671     21672
     21671     21673     21673     21674     21673     21675     21673     21676
     21676     21677     21676     21678     21676     21679     21679     21680
     21679     21681     21679     21682     21682     21683     21682     21684
     21682     21685     21685     21686     21685     21687     21685     21688
     21688     21689     21688     21690     21688     21691     21691     21692
     21691     21693     21691     21694     21694     21695     21694     21696
     21694     21697     21645     21646     21646     21648     21646     21647
     21648     21649     21648     21650     21648     21698     21698     21699
     21698     21700     21698     21701     21701     21702     21701     21703
     21701     21704     21704     21705     21704     21706     21704     21707
     21707     21708     21707     21709     21707     21710     21710     21711
     21710     21712     21710     21713     21713     21714     21713     21715
     21713     21716     21716     21717     21716     21718     21716     21719
     21719     21720     21719     21721     21719     21722     21722     21723
     21722     21724     21722     21725     21725     21726     21725     21727
     21725     21728     21728     21729     21728     21730     21728     21731
     21731     21732     21731     21733     21731     21734     21734     21735
     21734     21736     21734     21737     21737     21738     21737     21739
     21737     21740     21741     21742     21741     21743     21741     21744
     21741     21745     21745     21746     21745     21747     21745     21748
     21748     21749     21748     21750     21748     21755     21755     21751
     21751     21754     21751     21752     21751     21753     21756     21757
     21756     21758     21756     21759     21756     21754     21759     21760
     21759     21767     21759     21761     21767     21768     21767     21769
     21767     21770     21761     21762     21762     21764     21762     21763
     21764     21765     21764     21766     21764     21776     21776     21777
     21776     21778     21776     21779     21779     21780     21779     21781
     21779     21782     21782     21783     21782     21784     21782     21785
     21785     21786     21785     21787     21785     21788     21788     21789
     21788     21790     21788     21791     21791     21792     21791     21793
     21791     21794     21794     21795     21794     21799     21794     21796
     21799     21800     21799     21801     21799     21796     21801     21802
     21801     21803     21801     21804     21804     21805     21804     21806
     21804     21807     21807     21808     21807     21809     21807     21810
     21810     21811     21810     21812     21810     21813     21813     21814
     21813     21815     21813     21816     21816     21817     21816     21818
     21816     21819     21796     21797     21796     21798     21770     21771
     21771     21773     21771     21772     21773     21774     21773     21775
     21773     21820     21820     21821     21820     21822     21820     21823
     21823     21824     21823     21825     21823     21826     21826     21827
     21826     21828     21826     21829     21829     21830     21829     21831
     21829     21832     21832     21833     21832     21834     21832     21835
     21835     21836     21835     21837     21835     21838     21838     21839
     21838     21840     21838     21841     21841     21842     21841     21843
     21841     21844     21844     21845     21844     21846     21844     21847
     21847     21848     21847     21849     21847     21850     21850     21851
     21850     21852     21850     21853     21853     21854     21853     21855
     21853     21856     21856     21857     21856     21858     21856     21859
     21859     21860     21859     21861     21859     21862     21863     21864
     21863     21865     21863     21866     21863     21867     21867     21868
     21867     21869     21867     21870     21870     21871     21870     21872
     21870     21877     21877     21873     21873     21876     21873     21874
     21873     21875     21878     21879     21878     21880     21878     21881
     21878     21876     21881     21882     21881     21889     21881     21883
     21889     21890     21889     21891     21889     21892     21883     21884
     21884     21886     21884     21885     21886     21887     21886     21888
     21886     21898     21898     21899     21898     21900     21898     21901
     21901     21902     21901     21903     21901     21904     21904     21905
     21904     21906     21904     21907     21907     21908     21907     21909
     21907     21910     21910     21911     21910     21912     21910     21913
     21913     21914     21913     21915     21913     21916     21916     21917
     21916     21918     21918     21919     21918     21920     21920     21921
     21920     21922     21920     21923     21923     21924     21923     21925
     21923     21926     21926     21927     21926     21928     21926     21929
     21929     21930     21929     21931     21929     21932     21932     21933
     21932     21934     21932     21935     21935     21936     21935     21937
     21935     21938     21892     21893     21893     21895     21893     21894
     21895     21896     21895     21897     21895     21939     21939     21940
     21939     21941     21939     21942     21942     21943     21942     21944
     21942     21945     21945     21946     21945     21947     21945     21948
     21948     21949     21948     21950     21948     21951     21951     21952
     21951     21953     21951     21954     21954     21955     21954     21956
     21954     21957     21957     21958     21957     21959     21959     21960
     21959     21961     21961     21962     21961     21963     21961     21964
     21964     21965     21964     21966     21964     21967     21967     21968
     21967     21969     21967     21970     21970     21971     21970     21972
     21970     21973     21973     21974     21973     21975     21973     21976
     21976     21977     21976     21978     21976     21979     21979     21980
     21979     21981     21979     21982     21982     21983     21982     21984
     21982     21985     21990     21989     21989     21986     21986     21987
     21986     21988     21986     21991     21994     21993     21993     21991
     21991     21992     21991     21995     21995     21996     21995     21997
     21995     22002     22002     21998     21998     22001     21998     21999
     21998     22000     22003     22004     22003     22005     22003     22006
     22003     22001     22006     22007     22006     22014     22006     22008
     22014     22015     22014     22016     22014     22017     22008     22009
     22009     22011     22009     22010     22011     22012     22011     22013
     22011     22023     22023     22024     22023     22025     22023     22026
     22026     22027     22026     22028     22026     22029     22029     22030
     22029     22031     22029     22032     22032     22033     22032     22034
     22032     22035     22035     22036     22035     22037     22035     22038
     22038     22039     22038     22040     22038     22041     22041     22042
     22041     22046     22041     22043     22046     22047     22046     22048
     22046     22043     22048     22049     22048     22050     22048     22051
     22051     22052     22051     22053     22051     22054     22054     22055
     22054     22056     22054     22057     22057     22058     22057     22059
     22057     22060     22060     22061     22060     22062     22060     22063
     22063     22064     22063     22065     22063     22066     22043     22044
     22043     22045     22017     22018     22018     22020     22018     22019
     22020     22021     22020     22022     22020     22067     22067     22068
     22067     22069     22067     22070     22070     22071     22070     22072
     22070     22073     22073     22074     22073     22075     22073     22076
     22076     22077     22076     22078     22076     22079     22079     22080
     22079     22081     22079     22082     22082     22083     22082     22084
     22082     22085     22085     22086     22085     22087     22085     22088
     22088     22089     22088     22090     22088     22091     22091     22092
     22091     22093     22091     22094     22094     22095     22094     22096
     22094     22097     22097     22098     22097     22099     22097     22100
     22100     22101     22100     22102     22100     22103     22103     22104
     22103     22105     22103     22106     22106     22107     22106     22108
     22106     22109     22110     22111     22110     22112     22110     22113
     22110     22114     22114     22115     22114     22116     22114     22117
     22117     22118     22117     22119     22117     22124     22124     22120
     22120     22123     22120     22121     22120     22122     22125     22126
     22125     22127     22125     22128     22125     22123     22128     22129
     22128     22136     22128     22130     22136     22137     22136     22138
     22136     22139     22130     22131     22131     22133     22131     22132
     22133     22134     22133     22135     22133     22145     22145     22146
     22145     22147     22145     22148     22148     22149     22148     22150
     22148     22151     22151     22152     22151     22153     22151     22154
     22154     22155     22154     22156     22154     22157     22157     22158
     22157     22159     22157     22160     22160     22161     22160     22162
     22160     22163     22163     22164     22163     22168     22163     22165
     22168     22169     22168     22170     22168     22165     22170     22171
     22170     22172     22170     22173     22173     22174     22173     22175
     22173     22176     22176     22177     22176     22178     22176     22179
     22179     22180     22179     22181     22179     22182     22182     22183
     22182     22184     22182     22185     22185     22186     22185     22187
     22185     22188     22165     22166     22165     22167     22139     22140
     22140     22142     22140     22141     22142     22143     22142     22144
     22142     22189     22189     22190     22189     22191     22189     22192
     22192     22193     22192     22194     22192     22195     22195     22196
     22195     22197     22195     22198     22198     22199     22198     22200
     22198     22201     22201     22202     22201     22203     22201     22204
     22204     22205     22204     22206     22204     22207     22207     22208
     22207     22209     22207     22210     22210     22211     22210     22212
     22210     22213     22213     22214     22213     22215     22213     22216
     22216     22217     22216     22218     22216     22219     22219     22220
     22219     22221     22219     22222     22222     22223     22222     22224
     22222     22225     22225     22226     22225     22227     22225     22228
     22228     22229     22228     22230     22228     22231     22232     22233
     22232     22234     22232     22235     22232     22236     22236     22237
     22236     22238     22236     22239     22239     22240     22239     22241
     22239     22246     22246     22242     22242     22245     22242     22243
     22242     22244     22247     22248     22247     22249     22247     22250
     22247     22245     22250     22251     22250     22258     22250     22252
     22258     22259     22258     22260     22258     22261     22252     22253
     22253     22255     22253     22254     22255     22256     22255     22257
     22255     22267     22267     22268     22267     22269     22267     22270
     22270     22271     22270     22272     22270     22273     22273     22274
     22273     22275     22273     22276     22276     22277     22276     22278
     22276     22279     22279     22280     22279     22281     22279     22282
     22282     22283     22282     22284     22282     22285     22285     22286
     22285     22290     22285     22287     22290     22291     22290     22292
     22290     22287     22292     22293     22292     22294     22292     22295
     22295     22296     22295     22297     22295     22298     22298     22299
     22298     22300     22298     22301     22301     22302     22301     22303
     22301     22304     22304     22305     22304     22306     22304     22307
     22307     22308     22307     22309     22307     22310     22287     22288
     22287     22289     22261     22262     22262     22264     22262     22263
     22264     22265     22264     22266     22264     22311     22311     22312
     22311     22313     22311     22314     22314     22315     22314     22316
     22314     22317     22317     22318     22317     22319     22317     22320
     22320     22321     22320     22322     22320     22323     22323     22324
     22323     22325     22323     22326     22326     22327     22326     22328
     22326     22329     22329     22330     22329     22331     22329     22332
     22332     22333     22332     22334     22332     22335     22335     22336
     22335     22337     22335     22338     22338     22339     22338     22340
     22338     22341     22341     22342     22341     22343     22341     22344
     22344     22345     22344     22346     22344     22347     22347     22348
     22347     22349     22347     22350     22350     22351     22350     22352
     22350     22353     22358     22357     22357     22354     22354     22355
     22354     22356     22354     22359     22362     22361     22361     22359
     22359     22360     22359     22363     22363     22364     22363     22365
     22363     22370     22370     22366     22366     22369     22366     22367
     22366     22368     22371     22372     22371     22373     22371     22374
     22371     22369     22374     22375     22374     22382     22374     22376
     22382     22383     22382     22384     22382     22385     22376     22377
     22377     22379     22377     22378     22379     22380     22379     22381
     22379     22391     22391     22392     22391     22393     22391     22394
     22394     22395     22394     22396     22394     22397     22397     22398
     22397     22399     22397     22400     22400     22401     22400     22402
     22400     22403     22403     22404     22403     22405     22403     22406
     22406     22407     22406     22408     22406     22409     22409     22410
     22409     22411     22411     22412     22411     22413     22413     22414
     22413     22415     22413     22416     22416     22417     22416     22418
     22416     22419     22419     22420     22419     22421     22419     22422
     22422     22423     22422     22424     22422     22425     22425     22426
     22425     22427     22425     22428     22428     22429     22428     22430
     22428     22431     22385     22386     22386     22388     22386     22387
     22388     22389     22388     22390     22388     22432     22432     22433
     22432     22434     22432     22435     22435     22436     22435     22437
     22435     22438     22438     22439     22438     22440     22438     22441
     22441     22442     22441     22443     22441     22444     22444     22445
     22444     22446     22444     22447     22447     22448     22447     22449
     22447     22450     22450     22451     22450     22452     22450     22453
     22453     22454     22453     22455     22453     22456     22456     22457
     22456     22458     22456     22459     22459     22460     22459     22461
     22459     22462     22462     22463     22462     22464     22462     22465
     22465     22466     22465     22467     22465     22468     22468     22469
     22468     22470     22468     22471     22471     22472     22471     22473
     22471     22474     22475     22476     22475     22477     22475     22478
     22475     22479     22479     22480     22479     22481     22479     22482
     22482     22483     22482     22484     22482     22489     22489     22485
     22485     22488     22485     22486     22485     22487     22490     22491
     22490     22492     22490     22493     22490     22488     22493     22494
     22493     22501     22493     22495     22501     22502     22501     22503
     22501     22504     22495     22496     22496     22498     22496     22497
     22498     22499     22498     22500     22498     22510     22510     22511
     22510     22512     22510     22513     22513     22514     22513     22515
     22513     22516     22516     22517     22516     22518     22516     22519
     22519     22520     22519     22521     22519     22522     22522     22523
     22522     22524     22522     22525     22525     22526     22525     22527
     22525     22528     22528     22529     22528     22530     22530     22531
     22530     22532     22532     22533     22532     22534     22532     22535
     22535     22536     22535     22537     22535     22538     22538     22539
     22538     22540     22538     22541     22541     22542     22541     22543
     22541     22544     22544     22545     22544     22546     22544     22547
     22547     22548     22547     22549     22547     22550     22504     22505
     22505     22507     22505     22506     22507     22508     22507     22509
     22507     22551     22551     22552     22551     22553     22551     22554
     22554     22555     22554     22556     22554     22557     22557     22558
     22557     22559     22557     22560     22560     22561     22560     22562
     22560     22563     22563     22564     22563     22565     22563     22566
     22566     22567     22566     22568     22566     22569     22569     22570
     22569     22571     22571     22572     22571     22573     22573     22574
     22573     22575     22573     22576     22576     22577     22576     22578
     22576     22579     22579     22580     22579     22581     22579     22582
     22582     22583     22582     22584     22582     22585     22585     22586
     22585     22587     22585     22588     22588     22589     22588     22590
     22588     22591     22591     22592     22591     22593     22591     22594
     22594     22595     22594     22596     22594     22597     22598     22599
     22598     22600     22598     22601     22598     22602     22602     22603
     22602     22604     22602     22605     22605     22606     22605     22607
     22605     22612     22612     22608     22608     22611     22608     22609
     22608     22610     22613     22614     22613     22615     22613     22616
     22613     22611     22616     22617     22616     22624     22616     22618
     22624     22625     22624     22626     22624     22627     22618     22619
     22619     22621     22619     22620     22621     22622     22621     22623
     22621     22633     22633     22634     22633     22635     22633     22636
     22636     22637     22636     22638     22636     22639     22639     22640
     22639     22641     22639     22642     22642     22643     22642     22644
     22642     22645     22645     22646     22645     22647     22645     22648
     22648     22649     22648     22650     22648     22651     22651     22652
     22651     22656     22651     22653     22656     22657     22656     22658
     22656     22653     22658     22659     22658     22660     22658     22661
     22661     22662     22661     22663     22661     22664     22664     22665
     22664     22666     22664     22667     22667     22668     22667     22669
     22667     22670     22670     22671     22670     22672     22670     22673
     22673     22674     22673     22675     22673     22676     22653     22654
     22653     22655     22627     22628     22628     22630     22628     22629
     22630     22631     22630     22632     22630     22677     22677     22678
     22677     22679     22677     22680     22680     22681     22680     22682
     22680     22683     22683     22684     22683     22685     22683     22686
     22686     22687     22686     22688     22686     22689     22689     22690
     22689     22691     22689     22692     22692     22693     22692     22694
     22692     22695     22695     22696     22695     22697     22695     22698
     22698     22699     22698     22700     22698     22701     22701     22702
     22701     22703     22701     22704     22704     22705     22704     22706
     22704     22707     22707     22708     22707     22709     22707     22710
     22710     22711     22710     22712     22710     22713     22713     22714
     22713     22715     22713     22716     22716     22717     22716     22718
     22716     22719     22720     22721     22720     22722     22720     22723
     22720     22724     22724     22725     22724     22726     22724     22727
     22727     22728     22727     22729     22727     22734     22734     22730
     22730     22733     22730     22731     22730     22732     22735     22736
     22735     22737     22735     22738     22735     22733     22738     22739
     22738     22746     22738     22740     22746     22747     22746     22748
     22746     22749     22740     22741     22741     22743     22741     22742
     22743     22744     22743     22745     22743     22755     22755     22756
     22755     22757     22755     22758     22758     22759     22758     22760
     22758     22761     22761     22762     22761     22763     22761     22764
     22764     22765     22764     22766     22764     22767     22767     22768
     22767     22769     22767     22770     22770     22771     22770     22772
     22770     22773     22773     22774     22773     22778     22773     22775
     22778     22779     22778     22780     22778     22775     22780     22781
     22780     22782     22780     22783     22783     22784     22783     22785
     22783     22786     22786     22787     22786     22788     22786     22789
     22789     22790     22789     22791     22789     22792     22792     22793
     22792     22794     22792     22795     22795     22796     22795     22797
     22795     22798     22775     22776     22775     22777     22749     22750
     22750     22752     22750     22751     22752     22753     22752     22754
     22752     22799     22799     22800     22799     22801     22799     22802
     22802     22803     22802     22804     22802     22805     22805     22806
     22805     22807     22805     22808     22808     22809     22808     22810
     22808     22811     22811     22812     22811     22813     22811     22814
     22814     22815     22814     22816     22814     22817     22817     22818
     22817     22819     22817     22820     22820     22821     22820     22822
     22820     22823     22823     22824     22823     22825     22823     22826
     22826     22827     22826     22828     22826     22829     22829     22830
     22829     22831     22829     22832     22832     22833     22832     22834
     22832     22835     22835     22836     22835     22837     22835     22838
     22843     22842     22842     22839     22839     22840     22839     22841
     22839     22844     22847     22846     22846     22844     22844     22845
     22844     22848     22848     22849     22848     22850     22848     22855
     22855     22851     22851     22854     22851     22852     22851     22853
     22856     22857     22856     22858     22856     22859     22856     22854
     22859     22860     22859     22867     22859     22861     22867     22868
     22867     22869     22867     22870     22861     22862     22862     22864
     22862     22863     22864     22865     22864     22866     22864     22876
     22876     22877     22876     22878     22876     22879     22879     22880
     22879     22881     22879     22882     22882     22883     22882     22884
     22882     22885     22885     22886     22885     22887     22885     22888
     22888     22889     22888     22890     22888     22891     22891     22892
     22891     22893     22891     22894     22894     22895     22894     22899
     22894     22896     22899     22900     22899     22901     22899     22896
     22901     22902     22901     22903     22901     22904     22904     22905
     22904     22906     22904     22907     22907     22908     22907     22909
     22907     22910     22910     22911     22910     22912     22910     22913
     22913     22914     22913     22915     22913     22916     22916     22917
     22916     22918     22916     22919     22896     22897     22896     22898
     22870     22871     22871     22873     22871     22872     22873     22874
     22873     22875     22873     22920     22920     22921     22920     22922
     22920     22923     22923     22924     22923     22925     22923     22926
     22926     22927     22926     22928     22926     22929     22929     22930
     22929     22931     22929     22932     22932     22933     22932     22934
     22932     22935     22935     22936     22935     22937     22935     22938
     22938     22939     22938     22940     22938     22941     22941     22942
     22941     22943     22941     22944     22944     22945     22944     22946
     22944     22947     22947     22948     22947     22949     22947     22950
     22950     22951     22950     22952     22950     22953     22953     22954
     22953     22955     22953     22956     22956     22957     22956     22958
     22956     22959     22959     22960     22959     22961     22959     22962
     22963     22964     22963     22965     22963     22966     22963     22967
     22967     22968     22967     22969     22967     22970     22970     22971
     22970     22972     22970     22977     22977     22973     22973     22976
     22973     22974     22973     22975     22978     22979     22978     22980
     22978     22981     22978     22976     22981     22982     22981     22989
     22981     22983     22989     22990     22989     22991     22989     22992
     22983     22984     22984     22986     22984     22985     22986     22987
     22986     22988     22986     22998     22998     22999     22998     23000
     22998     23001     23001     23002     23001     23003     23001     23004
     23004     23005     23004     23006     23004     23007     23007     23008
     23007     23009     23007     23010     23010     23011     23010     23012
     23010     23013     23013     23014     23013     23015     23013     23016
     23016     23017     23016     23021     23016     23018     23021     23022
     23021     23023     23021     23018     23023     23024     23023     23025
     23023     23026     23026     23027     23026     23028     23026     23029
     23029     23030     23029     23031     23029     23032     23032     23033
     23032     23034     23032     23035     23035     23036     23035     23037
     23035     23038     23038     23039     23038     23040     23038     23041
     23018     23019     23018     23020     22992     22993     22993     22995
     22993     22994     22995     22996     22995     22997     22995     23042
     23042     23043     23042     23044     23042     23045     23045     23046
     23045     23047     23045     23048     23048     23049     23048     23050
     23048     23051     23051     23052     23051     23053     23051     23054
     23054     23055     23054     23056     23054     23057     23057     23058
     23057     23059     23057     23060     23060     23061     23060     23062
     23060     23063     23063     23064     23063     23065     23063     23066
     23066     23067     23066     23068     23066     23069     23069     23070
     23069     23071     23069     23072     23072     23073     23072     23074
     23072     23075     23075     23076     23075     23077     23075     23078
     23078     23079     23078     23080     23078     23081     23081     23082
     23081     23083     23081     23084     23085     23086     23085     23087
     23085     23088     23085     23089     23089     23090     23089     23091
     23089     23092     23092     23093     23092     23094     23092     23099
     23099     23095     23095     23098     23095     23096     23095     23097
     23100     23101     23100     23102     23100     23103     23100     23098
     23103     23104     23103     23111     23103     23105     23111     23112
     23111     23113     23111     23114     23105     23106     23106     23108
     23106     23107     23108     23109     23108     23110     23108     23120
     23120     23121     23120     23122     23120     23123     23123     23124
     23123     23125     23123     23126     23126     23127     23126     23128
     23126     23129     23129     23130     23129     23131     23129     23132
     23132     23133     23132     23134     23132     23135     23135     23136
     23135     23137     23135     23138     23138     23139     23138     23140
     23140     23141     23140     23142     23142     23143     23142     23144
     23142     23145     23145     23146     23145     23147     23145     23148
     23148     23149     23148     23150     23148     23151     23151     23152
     23151     23153     23151     23154     23154     23155     23154     23156
     23154     23157     23157     23158     23157     23159     23157     23160
     23160     23161     23160     23162     23160     23163     23163     23164
     23163     23165     23163     23166     23114     23115     23115     23117
     23115     23116     23117     23118     23117     23119     23117     23167
     23167     23168     23167     23169     23167     23170     23170     23171
     23170     23172     23170     23173     23173     23174     23173     23175
     23173     23176     23176     23177     23176     23178     23176     23179
     23179     23180     23179     23181     23179     23182     23182     23183
     23182     23184     23182     23185     23185     23186     23185     23187
     23185     23188     23188     23189     23188     23190     23188     23191
     23191     23192     23191     23193     23191     23194     23194     23195
     23194     23196     23194     23197     23197     23198     23197     23199
     23197     23200     23200     23201     23200     23202     23200     23203
     23203     23204     23203     23205     23203     23206     23206     23207
     23206     23208     23206     23209     23210     23211     23210     23212
     23210     23213     23210     23214     23214     23215     23214     23216
     23214     23217     23217     23218     23217     23219     23217     23224
     23224     23220     23220     23223     23220     23221     23220     23222
     23225     23226     23225     23227     23225     23228     23225     23223
     23228     23229     23228     23236     23228     23230     23236     23237
     23236     23238     23236     23239     23230     23231     23231     23233
     23231     23232     23233     23234     23233     23235     23233     23245
     23245     23246     23245     23247     23245     23248     23248     23249
     23248     23250     23248     23251     23251     23252     23251     23253
     23251     23254     23254     23255     23254     23256     23254     23257
     23257     23258     23257     23259     23257     23260     23260     23261
     23260     23262     23260     23263     23263     23264     23263     23268
     23263     23265     23268     23269     23268     23270     23268     23265
     23270     23271     23270     23272     23270     23273     23273     23274
     23273     23275     23273     23276     23276     23277     23276     23278
     23276     23279     23279     23280     23279     23281     23279     23282
     23282     23283     23282     23284     23282     23285     23285     23286
     23285     23287     23285     23288     23265     23266     23265     23267
     23239     23240     23240     23242     23240     23241     23242     23243
     23242     23244     23242     23289     23289     23290     23289     23291
     23289     23292     23292     23293     23292     23294     23292     23295
     23295     23296     23295     23297     23295     23298     23298     23299
     23298     23300     23298     23301     23301     23302     23301     23303
     23301     23304     23304     23305     23304     23306     23304     23307
     23307     23308     23307     23309     23307     23310     23310     23311
     23310     23312     23310     23313     23313     23314     23313     23315
     23313     23316     23316     23317     23316     23318     23316     23319
     23319     23320     23319     23321     23319     23322     23322     23323
     23322     23324     23322     23325     23325     23326     23325     23327
     23325     23328     23328     23329     23328     23330     23328     23331
     23332     23333     23332     23334     23332     23335     23332     23336
     23336     23337     23336     23338     23336     23339     23339     23340
     23339     23341     23339     23346     23346     23342     23342     23345
     23342     23343     23342     23344     23347     23348     23347     23349
     23347     23350     23347     23345     23350     23351     23350     23358
     23350     23352     23358     23359     23358     23360     23358     23361
     23352     23353     23353     23355     23353     23354     23355     23356
     23355     23357     23355     23367     23367     23368     23367     23369
     23367     23370     23370     23371     23370     23372     23370     23373
     23373     23374     23373     23375     23373     23376     23376     23377
     23376     23378     23376     23379     23379     23380     23379     23381
     23379     23382     23382     23383     23382     23384     23382     23385
     23385     23386     23385     23390     23385     23387     23390     23391
     23390     23392     23390     23387     23392     23393     23392     23394
     23392     23395     23395     23396     23395     23397     23395     23398
     23398     23399     23398     23400     23398     23401     23401     23402
     23401     23403     23401     23404     23404     23405     23404     23406
     23404     23407     23407     23408     23407     23409     23407     23410
     23387     23388     23387     23389     23361     23362     23362     23364
     23362     23363     23364     23365     23364     23366     23364     23411
     23411     23412     23411     23413     23411     23414     23414     23415
     23414     23416     23414     23417     23417     23418     23417     23419
     23417     23420     23420     23421     23420     23422     23420     23423
     23423     23424     23423     23425     23423     23426     23426     23427
     23426     23428     23426     23429     23429     23430     23429     23431
     23429     23432     23432     23433     23432     23434     23432     23435
     23435     23436     23435     23437     23435     23438     23438     23439
     23438     23440     23438     23441     23441     23442     23441     23443
     23441     23444     23444     23445     23444     23446     23444     23447
     23447     23448     23447     23449     23447     23450     23450     23451
     23450     23452     23450     23453     23454     23455     23454     23456
     23454     23457     23454     23458     23458     23459     23458     23460
     23458     23461     23461     23462     23461     23463     23461     23468
     23468     23464     23464     23467     23464     23465     23464     23466
     23469     23470     23469     23471     23469     23472     23469     23467
     23472     23473     23472     23480     23472     23474     23480     23481
     23480     23482     23480     23483     23474     23475     23475     23477
     23475     23476     23477     23478     23477     23479     23477     23489
     23489     23490     23489     23491     23489     23492     23492     23493
     23492     23494     23492     23495     23495     23496     23495     23497
     23495     23498     23498     23499     23498     23500     23498     23501
     23501     23502     23501     23503     23501     23504     23504     23505
     23504     23506     23504     23507     23507     23508     23507     23512
     23507     23509     23512     23513     23512     23514     23512     23509
     23514     23515     23514     23516     23514     23517     23517     23518
     23517     23519     23517     23520     23520     23521     23520     23522
     23520     23523     23523     23524     23523     23525     23523     23526
     23526     23527     23526     23528     23526     23529     23529     23530
     23529     23531     23529     23532     23509     23510     23509     23511
     23483     23484     23484     23486     23484     23485     23486     23487
     23486     23488     23486     23533     23533     23534     23533     23535
     23533     23536     23536     23537     23536     23538     23536     23539
     23539     23540     23539     23541     23539     23542     23542     23543
     23542     23544     23542     23545     23545     23546     23545     23547
     23545     23548     23548     23549     23548     23550     23548     23551
     23551     23552     23551     23553     23551     23554     23554     23555
     23554     23556     23554     23557     23557     23558     23557     23559
     23557     23560     23560     23561     23560     23562     23560     23563
     23563     23564     23563     23565     23563     23566     23566     23567
     23566     23568     23566     23569     23569     23570     23569     23571
     23569     23572     23572     23573     23572     23574     23572     23575
     23576     23577     23576     23578     23576     23579     23576     23580
     23580     23581     23580     23582     23580     23583     23583     23584
     23583     23585     23583     23590     23590     23586     23586     23589
     23586     23587     23586     23588     23591     23592     23591     23593
     23591     23594     23591     23589     23594     23595     23594     23602
     23594     23596     23602     23603     23602     23604     23602     23605
     23596     23597     23597     23599     23597     23598     23599     23600
     23599     23601     23599     23611     23611     23612     23611     23613
     23611     23614     23614     23615     23614     23616     23614     23617
     23617     23618     23617     23619     23617     23620     23620     23621
     23620     23622     23620     23623     23623     23624     23623     23625
     23623     23626     23626     23627     23626     23628     23626     23629
     23629     23630     23629     23631     23631     23632     23631     23633
     23633     23634     23633     23635     23633     23636     23636     23637
     23636     23638     23636     23639     23639     23640     23639     23641
     23639     23642     23642     23643     23642     23644     23642     23645
     23645     23646     23645     23647     23645     23648     23648     23649
     23648     23650     23648     23651     23651     23652     23651     23653
     23651     23654     23654     23655     23654     23656     23654     23657
     23605     23606     23606     23608     23606     23607     23608     23609
     23608     23610     23608     23658     23658     23659     23658     23660
     23658     23661     23661     23662     23661     23663     23661     23664
     23664     23665     23664     23666     23664     23667     23667     23668
     23667     23669     23667     23670     23670     23671     23670     23672
     23670     23673     23673     23674     23673     23675     23673     23676
     23676     23677     23676     23678     23676     23679     23679     23680
     23679     23681     23679     23682     23682     23683     23682     23684
     23682     23685     23685     23686     23685     23687     23685     23688
     23688     23689     23688     23690     23688     23691     23691     23692
     23691     23693     23691     23694     23694     23695     23694     23696
     23694     23697     23697     23698     23697     23699     23697     23700
     23705     23704     23704     23701     23701     23702     23701     23703
     23701     23706     23709     23708     23708     23706     23706     23707
     23706     23710     23710     23711     23710     23712     23710     23717
     23717     23713     23713     23716     23713     23714     23713     23715
     23718     23719     23718     23720     23718     23721     23718     23716
     23721     23722     23721     23729     23721     23723     23729     23730
     23729     23731     23729     23732     23723     23724     23724     23726
     23724     23725     23726     23727     23726     23728     23726     23738
     23738     23739     23738     23740     23738     23741     23741     23742
     23741     23743     23741     23744     23744     23745     23744     23746
     23744     23747     23747     23748     23747     23749     23747     23750
     23750     23751     23750     23752     23750     23753     23753     23754
     23753     23755     23753     23756     23756     23757     23756     23758
     23758     23759     23758     23760     23760     23761     23760     23762
     23760     23763     23763     23764     23763     23765     23763     23766
     23766     23767     23766     23768     23766     23769     23769     23770
     23769     23771     23769     23772     23772     23773     23772     23774
     23772     23775     23775     23776     23775     23777     23775     23778
     23732     23733     23733     23735     23733     23734     23735     23736
     23735     23737     23735     23779     23779     23780     23779     23781
     23779     23782     23782     23783     23782     23784     23782     23785
     23785     23786     23785     23787     23785     23788     23788     23789
     23788     23790     23788     23791     23791     23792     23791     23793
     23791     23794     23794     23795     23794     23796     23794     23797
     23797     23798     23797     23799     23797     23800     23800     23801
     23800     23802     23800     23803     23803     23804     23803     23805
     23803     23806     23806     23807     23806     23808     23806     23809
     23809     23810     23809     23811     23809     23812     23812     23813
     23812     23814     23812     23815     23815     23816     23815     23817
     23815     23818     23818     23819     23818     23820     23818     23821
     23822     23823     23822     23824     23822     23825     23822     23826
     23826     23827     23826     23828     23826     23829     23829     23830
     23829     23831     23829     23836     23836     23832     23832     23835
     23832     23833     23832     23834     23837     23838     23837     23839
     23837     23840     23837     23835     23840     23841     23840     23848
     23840     23842     23848     23849     23848     23850     23848     23851
     23842     23843     23843     23845     23843     23844     23845     23846
     23845     23847     23845     23857     23857     23858     23857     23859
     23857     23860     23860     23861     23860     23862     23860     23863
     23863     23864     23863     23865     23863     23866     23866     23867
     23866     23868     23866     23869     23869     23870     23869     23871
     23869     23872     23872     23873     23872     23874     23872     23875
     23875     23876     23875     23880     23875     23877     23880     23881
     23880     23882     23880     23877     23882     23883     23882     23884
     23882     23885     23885     23886     23885     23887     23885     23888
     23888     23889     23888     23890     23888     23891     23891     23892
     23891     23893     23891     23894     23894     23895     23894     23896
     23894     23897     23897     23898     23897     23899     23897     23900
     23877     23878     23877     23879     23851     23852     23852     23854
     23852     23853     23854     23855     23854     23856     23854     23901
     23901     23902     23901     23903     23901     23904     23904     23905
     23904     23906     23904     23907     23907     23908     23907     23909
     23907     23910     23910     23911     23910     23912     23910     23913
     23913     23914     23913     23915     23913     23916     23916     23917
     23916     23918     23916     23919     23919     23920     23919     23921
     23919     23922     23922     23923     23922     23924     23922     23925
     23925     23926     23925     23927     23925     23928     23928     23929
     23928     23930     23928     23931     23931     23932     23931     23933
     23931     23934     23934     23935     23934     23936     23934     23937
     23937     23938     23937     23939     23937     23940     23941     23942
     23941     23943     23941     23944     23941     23945     23945     23946
     23945     23947     23945     23948     23948     23949     23948     23950
     23948     23955     23955     23951     23951     23954     23951     23952
     23951     23953     23956     23957     23956     23958     23956     23959
     23956     23954     23959     23960     23959     23967     23959     23961
     23967     23968     23967     23969     23967     23970     23961     23962
     23962     23964     23962     23963     23964     23965     23964     23966
     23964     23976     23976     23977     23976     23978     23976     23979
     23979     23980     23979     23981     23979     23982     23982     23983
     23982     23984     23982     23985     23985     23986     23985     23987
     23985     23988     23988     23989     23988     23990     23988     23991
     23991     23992     23991     23993     23991     23994     23994     23995
     23994     23999     23994     23996     23999     24000     23999     24001
     23999     23996     24001     24002     24001     24003     24001     24004
     24004     24005     24004     24006     24004     24007     24007     24008
     24007     24009     24007     24010     24010     24011     24010     24012
     24010     24013     24013     24014     24013     24015     24013     24016
     24016     24017     24016     24018     24016     24019     23996     23997
     23996     23998     23970     23971     23971     23973     23971     23972
     23973     23974     23973     23975     23973     24020     24020     24021
     24020     24022     24020     24023     24023     24024     24023     24025
     24023     24026     24026     24027     24026     24028     24026     24029
     24029     24030     24029     24031     24029     24032     24032     24033
     24032     24034     24032     24035     24035     24036     24035     24037
     24035     24038     24038     24039     24038     24040     24038     24041
     24041     24042     24041     24043     24041     24044     24044     24045
     24044     24046     24044     24047     24047     24048     24047     24049
     24047     24050     24050     24051     24050     24052     24050     24053
     24053     24054     24053     24055     24053     24056     24056     24057
     24056     24058     24056     24059     24059     24060     24059     24061
     24059     24062     24063     24064     24063     24065     24063     24066
     24063     24067     24067     24068     24067     24069     24067     24070
     24070     24071     24070     24072     24070     24077     24077     24073
     24073     24076     24073     24074     24073     24075     24078     24079
     24078     24080     24078     24081     24078     24076     24081     24082
     24081     24089     24081     24083     24089     24090     24089     24091
     24089     24092     24083     24084     24084     24086     24084     24085
     24086     24087     24086     24088     24086     24098     24098     24099
     24098     24100     24098     24101     24101     24102     24101     24103
     24101     24104     24104     24105     24104     24106     24104     24107
     24107     24108     24107     24109     24107     24110     24110     24111
     24110     24112     24110     24113     24113     24114     24113     24115
     24113     24116     24116     24117     24116     24118     24118     24119
     24118     24120     24120     24121     24120     24122     24120     24123
     24123     24124     24123     24125     24123     24126     24126     24127
     24126     24128     24126     24129     24129     24130     24129     24131
     24129     24132     24132     24133     24132     24134     24132     24135
     24135     24136     24135     24137     24135     24138     24138     24139
     24138     24140     24138     24141     24141     24142     24141     24143
     24141     24144     24092     24093     24093     24095     24093     24094
     24095     24096     24095     24097     24095     24145     24145     24146
     24145     24147     24145     24148     24148     24149     24148     24150
     24148     24151     24151     24152     24151     24153     24151     24154
     24154     24155     24154     24156     24154     24157     24157     24158
     24157     24159     24157     24160     24160     24161     24160     24162
     24160     24163     24163     24164     24163     24165     24163     24166
     24166     24167     24166     24168     24166     24169     24169     24170
     24169     24171     24169     24172     24172     24173     24172     24174
     24172     24175     24175     24176     24175     24177     24175     24178
     24178     24179     24178     24180     24178     24181     24181     24182
     24181     24183     24181     24184     24184     24185     24184     24186
     24184     24187     24203     24199     24203     24204     24203     24205
     24199     24201     24199     24200     24201     24202     24199     24188
     24188     24189     24188     24190     24203     24209     24188     24194
     24206     24209     24206     24210     24206     24207     24206     24208
     24191     24194     24191     24195     24191     24192     24191     24193
     24210     24211     24211     24212     24211     24213     24211     24214
     24214     24215     24214     24216     24214     24222     24222     24223
     24222     24224     24222     24225     24195     24196     24196     24197
     24196     24198     24196     24231     24231     24232     24231     24233
     24231     24239     24239     24240     24239     24241     24239     24242
     24216     24217     24225     24226     24233     24234     24242     24243
     24217     24218     24217     24219     24219     24220     24219     24221
     24219     24248     24248     24249     24248     24250     24248     24251
     24251     24252     24251     24253     24251     24254     24254     24255
     24254     24256     24254     24257     24257     24258     24257     24259
     24257     24260     24260     24261     24260     24262     24260     24263
     24263     24264     24263     24265     24263     24266     24266     24267
     24266     24268     24266     24269     24269     24270     24269     24271
     24269     24272     24272     24273     24272     24274     24274     24275
     24274     24276     24276     24277     24276     24278     24276     24279
     24279     24280     24279     24281     24279     24282     24282     24283
     24282     24284     24282     24285     24285     24286     24285     24287
     24285     24288     24288     24289     24288     24290     24288     24291
     24291     24292     24291     24293     24291     24294     24226     24227
     24226     24228     24228     24229     24228     24230     24228     24295
     24295     24296     24295     24297     24295     24298     24298     24299
     24298     24300     24298     24301     24301     24302     24301     24303
     24301     24304     24304     24305     24304     24306     24304     24307
     24307     24308     24307     24309     24307     24310     24310     24311
     24310     24312     24310     24313     24313     24314     24313     24315
     24313     24316     24316     24317     24316     24318     24316     24319
     24319     24320     24319     24321     24319     24322     24322     24323
     24322     24324     24322     24325     24325     24326     24325     24327
     24325     24328     24328     24329     24328     24330     24328     24331
     24331     24332     24331     24333     24331     24334     24334     24335
     24334     24336     24334     24337     24234     24235     24234     24236
     24236     24237     24236     24238     24236     24338     24338     24339
     24338     24340     24338     24341     24341     24342     24341     24343
     24341     24344     24344     24345     24344     24346     24344     24347
     24347     24348     24347     24349     24347     24350     24350     24351
     24350     24352     24350     24353     24353     24354     24353     24355
     24353     24356     24356     24357     24356     24358     24356     24359
     24359     24360     24359     24361     24359     24362     24362     24363
     24362     24364     24364     24365     24364     24366     24366     24367
     24366     24368     24366     24369     24369     24370     24369     24371
     24369     24372     24372     24373     24372     24374     24372     24375
     24375     24376     24375     24377     24375     24378     24378     24379
     24378     24380     24378     24381     24381     24382     24381     24383
     24381     24384     24243     24244     24243     24245     24245     24246
     24245     24247     24245     24385     24385     24386     24385     24387
     24385     24388     24388     24389     24388     24390     24388     24391
     24391     24392     24391     24393     24391     24394     24394     24395
     24394     24396     24394     24397     24397     24398     24397     24399
     24397     24400     24400     24401     24400     24402     24400     24403
     24403     24404     24403     24405     24403     24406     24406     24407
     24406     24408     24406     24409     24409     24410     24409     24411
     24409     24412     24412     24413     24412     24414     24412     24415
     24415     24416     24415     24417     24415     24418     24418     24419
     24418     24420     24418     24421     24421     24422     24421     24423
     24421     24424     24424     24425     24424     24426     24424     24427
     24432     24431     24431     24428     24428     24429     24428     24430
     24428     24433     24436     24435     24435     24433     24433     24434
     24433     24437     24437     24438     24437     24439     24437     24444
     24444     24440     24440     24443     24440     24441     24440     24442
     24445     24446     24445     24447     24445     24448     24445     24443
     24448     24449     24448     24456     24448     24450     24456     24457
     24456     24458     24456     24459     24450     24451     24451     24453
     24451     24452     24453     24454     24453     24455     24453     24465
     24465     24466     24465     24467     24465     24468     24468     24469
     24468     24470     24468     24471     24471     24472     24471     24473
     24471     24474     24474     24475     24474     24476     24474     24477
     24477     24478     24477     24479     24477     24480     24480     24481
     24480     24482     24480     24483     24483     24484     24483     24488
     24483     24485     24488     24489     24488     24490     24488     24485
     24490     24491     24490     24492     24490     24493     24493     24494
     24493     24495     24493     24496     24496     24497     24496     24498
     24496     24499     24499     24500     24499     24501     24499     24502
     24502     24503     24502     24504     24502     24505     24505     24506
     24505     24507     24505     24508     24485     24486     24485     24487
     24459     24460     24460     24462     24460     24461     24462     24463
     24462     24464     24462     24509     24509     24510     24509     24511
     24509     24512     24512     24513     24512     24514     24512     24515
     24515     24516     24515     24517     24515     24518     24518     24519
     24518     24520     24518     24521     24521     24522     24521     24523
     24521     24524     24524     24525     24524     24526     24524     24527
     24527     24528     24527     24529     24527     24530     24530     24531
     24530     24532     24530     24533     24533     24534     24533     24535
     24533     24536     24536     24537     24536     24538     24536     24539
     24539     24540     24539     24541     24539     24542     24542     24543
     24542     24544     24542     24545     24545     24546     24545     24547
     24545     24548     24548     24549     24548     24550     24548     24551
     24552     24553     24552     24554     24552     24555     24552     24556
     24556     24557     24556     24558     24556     24559     24559     24560
     24559     24561     24559     24566     24566     24562     24562     24565
     24562     24563     24562     24564     24567     24568     24567     24569
     24567     24570     24567     24565     24570     24571     24570     24578
     24570     24572     24578     24579     24578     24580     24578     24581
     24572     24573     24573     24575     24573     24574     24575     24576
     24575     24577     24575     24587     24587     24588     24587     24589
     24587     24590     24590     24591     24590     24592     24590     24593
     24593     24594     24593     24595     24593     24596     24596     24597
     24596     24598     24596     24599     24599     24600     24599     24601
     24599     24602     24602     24603     24602     24604     24602     24605
     24605     24606     24605     24610     24605     24607     24610     24611
     24610     24612     24610     24607     24612     24613     24612     24614
     24612     24615     24615     24616     24615     24617     24615     24618
     24618     24619     24618     24620     24618     24621     24621     24622
     24621     24623     24621     24624     24624     24625     24624     24626
     24624     24627     24627     24628     24627     24629     24627     24630
     24607     24608     24607     24609     24581     24582     24582     24584
     24582     24583     24584     24585     24584     24586     24584     24631
     24631     24632     24631     24633     24631     24634     24634     24635
     24634     24636     24634     24637     24637     24638     24637     24639
     24637     24640     24640     24641     24640     24642     24640     24643
     24643     24644     24643     24645     24643     24646     24646     24647
     24646     24648     24646     24649     24649     24650     24649     24651
     24649     24652     24652     24653     24652     24654     24652     24655
     24655     24656     24655     24657     24655     24658     24658     24659
     24658     24660     24658     24661     24661     24662     24661     24663
     24661     24664     24664     24665     24664     24666     24664     24667
     24667     24668     24667     24669     24667     24670     24670     24671
     24670     24672     24670     24673     24674     24675     24674     24676
     24674     24677     24674     24678     24678     24679     24678     24680
     24678     24681     24681     24682     24681     24683     24681     24688
     24688     24684     24684     24687     24684     24685     24684     24686
     24689     24690     24689     24691     24689     24692     24689     24687
     24692     24693     24692     24700     24692     24694     24700     24701
     24700     24702     24700     24703     24694     24695     24695     24697
     24695     24696     24697     24698     24697     24699     24697     24709
     24709     24710     24709     24711     24709     24712     24712     24713
     24712     24714     24712     24715     24715     24716     24715     24717
     24715     24718     24718     24719     24718     24720     24718     24721
     24721     24722     24721     24723     24721     24724     24724     24725
     24724     24726     24724     24727     24727     24728     24727     24732
     24727     24729     24732     24733     24732     24734     24732     24729
     24734     24735     24734     24736     24734     24737     24737     24738
     24737     24739     24737     24740     24740     24741     24740     24742
     24740     24743     24743     24744     24743     24745     24743     24746
     24746     24747     24746     24748     24746     24749     24749     24750
     24749     24751     24749     24752     24729     24730     24729     24731
     24703     24704     24704     24706     24704     24705     24706     24707
     24706     24708     24706     24753     24753     24754     24753     24755
     24753     24756     24756     24757     24756     24758     24756     24759
     24759     24760     24759     24761     24759     24762     24762     24763
     24762     24764     24762     24765     24765     24766     24765     24767
     24765     24768     24768     24769     24768     24770     24768     24771
     24771     24772     24771     24773     24771     24774     24774     24775
     24774     24776     24774     24777     24777     24778     24777     24779
     24777     24780     24780     24781     24780     24782     24780     24783
     24783     24784     24783     24785     24783     24786     24786     24787
     24786     24788     24786     24789     24789     24790     24789     24791
     24789     24792     24792     24793     24792     24794     24792     24795
     24800     24799     24799     24796     24796     24797     24796     24798
     24796     24801     24804     24803     24803     24801     24801     24802
     24801     24805     24805     24806     24805     24807     24805     24812
     24812     24808     24808     24811     24808     24809     24808     24810
     24813     24814     24813     24815     24813     24816     24813     24811
     24816     24817     24816     24824     24816     24818     24824     24825
     24824     24826     24824     24827     24818     24819     24819     24821
     24819     24820     24821     24822     24821     24823     24821     24833
     24833     24834     24833     24835     24833     24836     24836     24837
     24836     24838     24836     24839     24839     24840     24839     24841
     24839     24842     24842     24843     24842     24844     24842     24845
     24845     24846     24845     24847     24845     24848     24848     24849
     24848     24850     24848     24851     24851     24852     24851     24853
     24853     24854     24853     24855     24855     24856     24855     24857
     24855     24858     24858     24859     24858     24860     24858     24861
     24861     24862     24861     24863     24861     24864     24864     24865
     24864     24866     24864     24867     24867     24868     24867     24869
     24867     24870     24870     24871     24870     24872     24870     24873
     24827     24828     24828     24830     24828     24829     24830     24831
     24830     24832     24830     24874     24874     24875     24874     24876
     24874     24877     24877     24878     24877     24879     24877     24880
     24880     24881     24880     24882     24880     24883     24883     24884
     24883     24885     24883     24886     24886     24887     24886     24888
     24886     24889     24889     24890     24889     24891     24889     24892
     24892     24893     24892     24894     24892     24895     24895     24896
     24895     24897     24895     24898     24898     24899     24898     24900
     24898     24901     24901     24902     24901     24903     24901     24904
     24904     24905     24904     24906     24904     24907     24907     24908
     24907     24909     24907     24910     24910     24911     24910     24912
     24910     24913     24913     24914     24913     24915     24913     24916

     48104 !NTHETA: angles
         2         1         3         2         1         4         2         1         5
         3         1         4         3         1         5         4         1         5
         1         5         6         1         5         7         1         5         8
         6         5         7         6         5         8         7         5         8
         5         8         9         5         8        10         5         8        15
         9         8        10         9         8        15        10         8        15
        12        11        13        12        11        14        12        11        15
        13        11        14        13        11        15        14        11        15
        11        14        16         8        15        11        14        16        17
        14        16        18        14        16        19        17        16        18
        17        16        19        18        16        19        16        19        20
        16        19        21        16        19        27        20        19        21
        20        19        27        21        19        27        19        21        22
        21        22        23        21        22        24        23        22        24
        22        24        25        22        24        26        22        24        36
        25        24        26        25        24        36        26        24        36
        19        27        28        19        27        29        19        27        30
        28        27        29        28        27        30        29        27        30
        27        30        31        30        31        32        30        31        33
        32        31        33        31        33        34        31        33        35
        31        33        80        34        33        35        34        33        80
        35        33        80        24        36        37        24        36        38
        24        36        39        37        36        38        37        36        39
        38        36        39        36        39        40        36        39        41
        36        39        42        40        39        41        40        39        42
        41        39        42        39        42        43        39        42        44
        39        42        45        43        42        44        43        42        45
        44        42        45        42        45        46        42        45        47
        42        45        48        46        45        47        46        45        48
        47        45        48        45        48        49        45        48        50
        45        48        51        49        48        50        49        48        51
        50        48        51        48        51        52        48        51        53
        48        51        54        52        51        53        52        51        54
        53        51        54        51        54        55        51        54        56
        51        54        59        55        54        56        55        54        59
        56        54        59        54        56        57        54        56        58
        54        56        59        57        56        58        57        56        59
        58        56        59        54        59        56        54        59        60
        54        59        61        56        59        60        56        59        61
        60        59        61        59        61        62        59        61        63
        59        61        64        62        61        63        62        61        64
        63        61        64        61        64        65        61        64        66
        61        64        67        65        64        66        65        64        67
        66        64        67        64        67        68        64        67        69
        64        67        70        68        67        69        68        67        70
        69        67        70        67        70        71        67        70        72
        67        70        73        71        70        72        71        70        73
        72        70        73        70        73        74        70        73        75
        70        73        76        74        73        75        74        73        76
        75        73        76        73        76        77        73        76        78
        73        76        79        77        76        78        77        76        79
        78        76        79        33        80        81        33        80        82
        33        80        83        81        80        82        81        80        83
        82        80        83        80        83        84        80        83        85
        80        83        86        84        83        85        84        83        86
        85        83        86        83        86        87        83        86        88
        83        86        89        87        86        88        87        86        89
        88        86        89        86        89        90        86        89        91
        86        89        92        90        89        91        90        89        92
        91        89        92        89        92        93        89        92        94
        89        92        95        93        92        94        93        92        95
        94        92        95        92        95        96        92        95        97
        92        95        98        96        95        97        96        95        98
        97        95        98        95        98        99        95        98       100
        95        98       101        99        98       100        99        98       101
       100        98       101        98       101       102        98       101       103
        98       101       104       102       101       103       102       101       104
       103       101       104       101       104       105       101       104       106
       101       104       107       105       104       106       105       104       107
       106       104       107       104       107       108       104       107       109
       104       107       110       108       107       109       108       107       110
       109       107       110       107       110       111       107       110       112
       107       110       113       111       110       112       111       110       113
       112       110       113       110       113       114       110       113       115
       110       113       116       114       113       115       114       113       116
       115       113       116       113       116       117       113       116       118
       113       116       119       117       116       118       117       116       119
       118       116       119       121       120       122       121       120       123
       121       120       124       122       120       123       122       120       124
       123       120       124       120       124       125       120       124       126
       120       124       127       125       124       126       125       124       127
       126       124       127       124       127       128       124       127       129
       124       127       134       128       127       129       128       127       134
       129       127       134       131       130       132       131       130       133
       131       130       134       132       130       133       132       130       134
       133       130       134       130       133       135       127       134       130
       133       135       136       133       135       137       133       135       138
       136       135       137       136       135       138       137       135       138
       135       138       139       135       138       140       135       138       146
       139       138       140       139       138       146       140       138       146
       138       140       141       140       141       142       140       141       143
       142       141       143       141       143       144       141       143       145
       141       143       155       144       143       145       144       143       155
       145       143       155       138       146       147       138       146       148
       138       146       149       147       146       148       147       146       149
       148       146       149       146       149       150       149       150       151
       149       150       152       151       150       152       150       152       153
       150       152       154       150       152       199       153       152       154
       153       152       199       154       152       199       143       155       156
       143       155       157       143       155       158       156       155       157
       156       155       158       157       155       158       155       158       159
       155       158       160       155       158       161       159       158       160
       159       158       161       160       158       161       158       161       162
       158       161       163       158       161       164       162       161       163
       162       161       164       163       161       164       161       164       165
       161       164       166       161       164       167       165       164       166
       165       164       167       166       164       167       164       167       168
       164       167       169       164       167       170       168       167       169
       168       167       170       169       167       170       167       170       171
       167       170       172       167       170       173       171       170       172
       171       170       173       172       170       173       170       173       174
       170       173       175       170       173       178       174       173       175
       174       173       178       175       173       178       173       175       176
       173       175       177       173       175       178       176       175       177
       176       175       178       177       175       178       173       178       175
       173       178       179       173       178       180       175       178       179
       175       178       180       179       178       180       178       180       181
       178       180       182       178       180       183       181       180       182
       181       180       183       182       180       183       180       183       184
       180       183       185       180       183       186       184       183       185
       184       183       186       185       183       186       183       186       187
       183       186       188       183       186       189       187       186       188
       187       186       189       188       186       189       186       189       190
       186       189       191       186       189       192       190       189       191
       190       189       192       191       189       192       189       192       193
       189       192       194       189       192       195       193       192       194
       193       192       195       194       192       195       192       195       196
       192       195       197       192       195       198       196       195       197
       196       195       198       197       195       198       152       199       200
       152       199       201       152       199       202       200       199       201
       200       199       202       201       199       202       199       202       203
       199       202       204       199       202       205       203       202       204
       203       202       205       204       202       205       202       205       206
       202       205       207       202       205       208       206       205       207
       206       205       208       207       205       208       205       208       209
       205       208       210       205       208       211       209       208       210
       209       208       211       210       208       211       208       211       212
       208       211       213       208       211       214       212       211       213
       212       211       214       213       211       214       211       214       215
       211       214       216       211       214       217       215       214       216
       215       214       217       216       214       217       214       217       218
       214       217       219       214       217       220       218       217       219
       218       217       220       219       217       220       217       220       221
       217       220       222       217       220       223       221       220       222
       221       220       223       222       220       223       220       223       224
       220       223       225       220       223       226       224       223       225
       224       223       226       225       223       226       223       226       227
       223       226       228       223       226       229       227       226       228
       227       226       229       228       226       229       226       229       230
       226       229       231       226       229       232       230       229       231
       230       229       232       231       229       232       229       232       233
       229       232       234       229       232       235       233       232       234
       233       232       235       234       232       235       232       235       236
       232       235       237       232       235       238       236       235       237
       236       235       238       237       235       238       235       238       239
       235       238       240       235       238       241       239       238       240
       239       238       241       240       238       241       243       242       244
       243       242       245       243       242       247       244       242       245
       244       242       247       245       242       247       242       245       246
       242       247       248       242       247       249       242       247       251
       248       247       249       248       247       251       249       247       251
       247       249       250       247       251       252       247       251       253
       247       251       258       252       251       253       252       251       258
       253       251       258       255       254       256       255       254       257
       255       254       258       256       254       257       256       254       258
       257       254       258       254       257       259       251       258       254
       257       259       260       257       259       261       257       259       262
       260       259       261       260       259       262       261       259       262
       259       262       263       259       262       264       259       262       270
       263       262       264       263       262       270       264       262       270
       262       264       265       264       265       266       264       265       267
       266       265       267       265       267       268       265       267       269
       265       267       279       268       267       269       268       267       279
       269       267       279       262       270       271       262       270       272
       262       270       273       271       270       272       271       270       273
       272       270       273       270       273       274       273       274       275
       273       274       276       275       274       276       274       276       277
       274       276       278       274       276       320       277       276       278
       277       276       320       278       276       320       267       279       280
       267       279       281       267       279       282       280       279       281
       280       279       282       281       279       282       279       282       283
       279       282       284       279       282       285       283       282       284
       283       282       285       284       282       285       282       285       286
       282       285       287       282       285       288       286       285       287
       286       285       288       287       285       288       285       288       289
       285       288       290       285       288       291       289       288       290
       289       288       291       290       288       291       288       291       292
       288       291       293       288       291       294       292       291       293
       292       291       294       293       291       294       291       294       295
       291       294       296       291       294       297       295       294       296
       295       294       297       296       294       297       294       297       298
       294       297       299       298       297       299       297       299       300
       297       299       301       300       299       301       299       301       302
       299       301       303       299       301       304       302       301       303
       302       301       304       303       301       304       301       304       305
       301       304       306       301       304       307       305       304       306
       305       304       307       306       304       307       304       307       308
       304       307       309       304       307       310       308       307       309
       308       307       310       309       307       310       307       310       311
       307       310       312       307       310       313       311       310       312
       311       310       313       312       310       313       310       313       314
       310       313       315       310       313       316       314       313       315
       314       313       316       315       313       316       313       316       317
       313       316       318       313       316       319       317       316       318
       317       316       319       318       316       319       276       320       321
       276       320       322       276       320       323       321       320       322
       321       320       323       322       320       323       320       323       324
       320       323       325       320       323       326       324       323       325
       324       323       326       325       323       326       323       326       327
       323       326       328       323       326       329       327       326       328
       327       326       329       328       326       329       326       329       330
       326       329       331       326       329       332       330       329       331
       330       329       332       331       329       332       329       332       333
       329       332       334       329       332       335       333       332       334
       333       332       335       334       332       335       332       335       336
       332       335       337       332       335       338       336       335       337
       336       335       338       337       335       338       335       338       339
       335       338       340       335       338       341       339       338       340
       339       338       341       340       338       341       338       341       342
       338       341       343       338       341       344       342       341       343
       342       341       344       343       341       344       341       344       345
       341       344       346       341       344       347       345       344       346
       345       344       347       346       344       347       344       347       348
       344       347       349       344       347       350       348       347       349
       348       347       350       349       347       350       347       350       351
       347       350       352       347       350       353       351       350       352
       351       350       353       352       350       353       350       353       354
       350       353       355       350       353       356       354       353       355
       354       353       356       355       353       356       353       356       357
       353       356       358       353       356       359       357       356       358
       357       356       359       358       356       359       356       359       360
       356       359       361       356       359       362       360       359       361
       360       359       362       361       359       362       364       363       365
       364       363       366       364       363       368       365       363       366
       365       363       368       366       363       368       363       366       367
       363       368       369       363       368       370       363       368       372
       369       368       370       369       368       372       370       368       372
       368       370       371       368       372       373       368       372       374
       368       372       379       373       372       374       373       372       379
       374       372       379       376       375       377       376       375       378
       376       375       379       377       375       378       377       375       379
       378       375       379       375       378       380       372       379       375
       378       380       381       378       380       382       378       380       383
       381       380       382       381       380       383       382       380       383
       380       383       384       380       383       385       380       383       391
       384       383       385       384       383       391       385       383       391
       383       385       386       385       386       387       385       386       388
       387       386       388       386       388       389       386       388       390
       386       388       400       389       388       390       389       388       400
       390       388       400       383       391       392       383       391       393
       383       391       394       392       391       393       392       391       394
       393       391       394       391       394       395       394       395       396
       394       395       397       396       395       397       395       397       398
       395       397       399       395       397       444       398       397       399
       398       397       444       399       397       444       388       400       401
       388       400       402       388       400       403       401       400       402
       401       400       403       402       400       403       400       403       404
       400       403       405       400       403       406       404       403       405
       404       403       406       405       403       406       403       406       407
       403       406       408       403       406       409       407       406       408
       407       406       409       408       406       409       406       409       410
       406       409       411       406       409       412       410       409       411
       410       409       412       411       409       412       409       412       413
       409       412       414       409       412       415       413       412       414
       413       412       415       414       412       415       412       415       416
       412       415       417       412       415       418       416       415       417
       416       415       418       417       415       418       415       418       419
       415       418       420       415       418       423       419       418       420
       419       418       423       420       418       423       418       420       421
       418       420       422       418       420       423       421       420       422
       421       420       423       422       420       423       418       423       420
       418       423       424       418       423       425       420       423       424
       420       423       425       424       423       425       423       425       426
       423       425       427       423       425       428       426       425       427
       426       425       428       427       425       428       425       428       429
       425       428       430       425       428       431       429       428       430
       429       428       431       430       428       431       428       431       432
       428       431       433       428       431       434       432       431       433
       432       431       434       433       431       434       431       434       435
       431       434       436       431       434       437       435       434       436
       435       434       437       436       434       437       434       437       438
       434       437       439       434       437       440       438       437       439
       438       437       440       439       437       440       437       440       441
       437       440       442       437       440       443       441       440       442
       441       440       443       442       440       443       397       444       445
       397       444       446       397       444       447       445       444       446
       445       444       447       446       444       447       444       447       448
       444       447       449       444       447       450       448       447       449
       448       447       450       449       447       450       447       450       451
       447       450       452       447       450       453       451       450       452
       451       450       453       452       450       453       450       453       454
       450       453       455       450       453       456       454       453       455
       454       453       456       455       453       456       453       456       457
       453       456       458       453       456       459       457       456       458
       457       456       459       458       456       459       456       459       460
       456       459       461       456       459       462       460       459       461
       460       459       462       461       459       462       459       462       463
       459       462       464       459       462       465       463       462       464
       463       462       465       464       462       465       462       465       466
       462       465       467       462       465       468       466       465       467
       466       465       468       467       465       468       465       468       469
       465       468       470       465       468       471       469       468       470
       469       468       471       470       468       471       468       471       472
       468       471       473       468       471       474       472       471       473
       472       471       474       473       471       474       471       474       475
       471       474       476       471       474       477       475       474       476
       475       474       477       476       474       477       474       477       478
       474       477       479       474       477       480       478       477       479
       478       477       480       479       477       480       477       480       481
       477       480       482       477       480       483       481       480       482
       481       480       483       482       480       483       480       483       484
       480       483       485       480       483       486       484       483       485
       484       483       486       485       483       486       488       487       489
       488       487       490       488       487       491       489       487       490
       489       487       491       490       487       491       487       491       492
       487       491       493       487       491       494       492       491       493
       492       491       494       493       491       494       491       494       495
       491       494       496       491       494       501       495       494       496
       495       494       501       496       494       501       498       497       499
       498       497       500       498       497       501       499       497       500
       499       497       501       500       497       501       497       500       502
       494       501       497       500       502       503       500       502       504
       500       502       505       503       502       504       503       502       505
       504       502       505       502       505       506       502       505       507
       502       505       513       506       505       507       506       505       513
       507       505       513       505       507       508       507       508       509
       507       508       510       509       508       510       508       510       511
       508       510       512       508       510       522       511       510       512
       511       510       522       512       510       522       505       513       514
       505       513       515       505       513       516       514       513       515
       514       513       516       515       513       516       513       516       517
       516       517       518       516       517       519       518       517       519
       517       519       520       517       519       521       517       519       566
       520       519       521       520       519       566       521       519       566
       510       522       523       510       522       524       510       522       525
       523       522       524       523       522       525       524       522       525
       522       525       526       522       525       527       522       525       528
       526       525       527       526       525       528       527       525       528
       525       528       529       525       528       530       525       528       531
       529       528       530       529       528       531       530       528       531
       528       531       532       528       531       533       528       531       534
       532       531       533       532       531       534       533       531       534
       531       534       535       531       534       536       531       534       537
       535       534       536       535       534       537       536       534       537
       534       537       538       534       537       539       534       537       540
       538       537       539       538       537       540       539       537       540
       537       540       541       537       540       542       537       540       545
       541       540       542       541       540       545       542       540       545
       540       542       543       540       542       544       540       542       545
       543       542       544       543       542       545       544       542       545
       540       545       542       540       545       546       540       545       547
       542       545       546       542       545       547       546       545       547
       545       547       548       545       547       549       545       547       550
       548       547       549       548       547       550       549       547       550
       547       550       551       547       550       552       547       550       553
       551       550       552       551       550       553       552       550       553
       550       553       554       550       553       555       550       553       556
       554       553       555       554       553       556       555       553       556
       553       556       557       553       556       558       553       556       559
       557       556       558       557       556       559       558       556       559
       556       559       560       556       559       561       556       559       562
       560       559       561       560       559       562       561       559       562
       559       562       563       559       562       564       559       562       565
       563       562       564       563       562       565       564       562       565
       519       566       567       519       566       568       519       566       569
       567       566       568       567       566       569       568       566       569
       566       569       570       566       569       571       566       569       572
       570       569       571       570       569       572       571       569       572
       569       572       573       569       572       574       569       572       575
       573       572       574       573       572       575       574       572       575
       572       575       576       572       575       577       572       575       578
       576       575       577       576       575       578       577       575       578
       575       578       579       575       578       580       575       578       581
       579       578       580       579       578       581       580       578       581
       578       581       582       578       581       583       578       581       584
       582       581       583       582       581       584       583       581       584
       581       584       585       581       584       586       581       584       587
       585       584       586       585       584       587       586       584       587
       584       587       588       584       587       589       584       587       590
       588       587       589       588       587       590       589       587       590
       587       590       591       587       590       592       587       590       593
       591       590       592       591       590       593       592       590       593
       590       593       594       590       593       595       590       593       596
       594       593       595       594       593       596       595       593       596
       593       596       597       593       596       598       593       596       599
       597       596       598       597       596       599       598       596       599
       596       599       600       596       599       601       596       599       602
       600       599       601       600       599       602       601       599       602
       599       602       603       599       602       604       599       602       605
       603       602       604       603       602       605       604       602       605
       607       606       608       607       606       609       607       606       610
       608       606       609       608       606       610       609       606       610
       606       610       611       606       610       612       606       610       613
       611       610       612       611       610       613       612       610       613
       610       613       614       610       613       615       610       613       620
       614       613       615       614       613       620       615       613       620
       617       616       618       617       616       619       617       616       620
       618       616       619       618       616       620       619       616       620
       616       619       621       613       620       616       619       621       622
       619       621       623       619       621       624       622       621       623
       622       621       624       623       621       624       621       624       625
       621       624       626       621       624       632       625       624       626
       625       624       632       626       624       632       624       626       627
       626       627       628       626       627       629       628       627       629
       627       629       630       627       629       631       627       629       641
       630       629       631       630       629       641       631       629       641
       624       632       633       624       632       634       624       632       635
       633       632       634       633       632       635       634       632       635
       632       635       636       635       636       637       635       636       638
       637       636       638       636       638       639       636       638       640
       636       638       685       639       638       640       639       638       685
       640       638       685       629       641       642       629       641       643
       629       641       644       642       641       643       642       641       644
       643       641       644       641       644       645       641       644       646
       641       644       647       645       644       646       645       644       647
       646       644       647       644       647       648       644       647       649
       644       647       650       648       647       649       648       647       650
       649       647       650       647       650       651       647       650       652
       647       650       653       651       650       652       651       650       653
       652       650       653       650       653       654       650       653       655
       650       653       656       654       653       655       654       653       656
       655       653       656       653       656       657       653       656       658
       653       656       659       657       656       658       657       656       659
       658       656       659       656       659       660       656       659       661
       656       659       664       660       659       661       660       659       664
       661       659       664       659       661       662       659       661       663
       659       661       664       662       661       663       662       661       664
       663       661       664       659       664       661       659       664       665
       659       664       666       661       664       665       661       664       666
       665       664       666       664       666       667       664       666       668
       664       666       669       667       666       668       667       666       669
       668       666       669       666       669       670       666       669       671
       666       669       672       670       669       671       670       669       672
       671       669       672       669       672       673       669       672       674
       669       672       675       673       672       674       673       672       675
       674       672       675       672       675       676       672       675       677
       672       675       678       676       675       677       676       675       678
       677       675       678       675       678       679       675       678       680
       675       678       681       679       678       680       679       678       681
       680       678       681       678       681       682       678       681       683
       678       681       684       682       681       683       682       681       684
       683       681       684       638       685       686       638       685       687
       638       685       688       686       685       687       686       685       688
       687       685       688       685       688       689       685       688       690
       685       688       691       689       688       690       689       688       691
       690       688       691       688       691       692       688       691       693
       688       691       694       692       691       693       692       691       694
       693       691       694       691       694       695       691       694       696
       691       694       697       695       694       696       695       694       697
       696       694       697       694       697       698       694       697       699
       694       697       700       698       697       699       698       697       700
       699       697       700       697       700       701       697       700       702
       697       700       703       701       700       702       701       700       703
       702       700       703       700       703       704       700       703       705
       700       703       706       704       703       705       704       703       706
       705       703       706       703       706       707       703       706       708
       703       706       709       707       706       708       707       706       709
       708       706       709       706       709       710       706       709       711
       706       709       712       710       709       711       710       709       712
       711       709       712       709       712       713       709       712       714
       709       712       715       713       712       714       713       712       715
       714       712       715       712       715       716       712       715       717
       712       715       718       716       715       717       716       715       718
       717       715       718       715       718       719       715       718       720
       715       718       721       719       718       720       719       718       721
       720       718       721       718       721       722       718       721       723
       718       721       724       722       721       723       722       721       724
       723       721       724       721       724       725       721       724       726
       721       724       727       725       724       726       725       724       727
       726       724       727       729       728       730       729       728       731
       729       728       733       730       728       731       730       728       733
       731       728       733       728       731       732       728       733       734
       728       733       735       728       733       737       734       733       735
       734       733       737       735       733       737       733       735       736
       733       737       738       733       737       739       733       737       744
       738       737       739       738       737       744       739       737       744
       741       740       742       741       740       743       741       740       744
       742       740       743       742       740       744       743       740       744
       740       743       745       737       744       740       743       745       746
       743       745       747       743       745       748       746       745       747
       746       745       748       747       745       748       745       748       749
       745       748       750       745       748       756       749       748       750
       749       748       756       750       748       756       748       750       751
       750       751       752       750       751       753       752       751       753
       751       753       754       751       753       755       751       753       765
       754       753       755       754       753       765       755       753       765
       748       756       757       748       756       758       748       756       759
       757       756       758       757       756       759       758       756       759
       756       759       760       759       760       761       759       760       762
       761       760       762       760       762       763       760       762       764
       760       762       809       763       762       764       763       762       809
       764       762       809       753       765       766       753       765       767
       753       765       768       766       765       767       766       765       768
       767       765       768       765       768       769       765       768       770
       765       768       771       769       768       770       769       768       771
       770       768       771       768       771       772       768       771       773
       768       771       774       772       771       773       772       771       774
       773       771       774       771       774       775       771       774       776
       771       774       777       775       774       776       775       774       777
       776       774       777       774       777       778       774       777       779
       774       777       780       778       777       779       778       777       780
       779       777       780       777       780       781       777       780       782
       777       780       783       781       780       782       781       780       783
       782       780       783       780       783       784       780       783       785
       780       783       788       784       783       785       784       783       788
       785       783       788       783       785       786       783       785       787
       783       785       788       786       785       787       786       785       788
       787       785       788       783       788       785       783       788       789
       783       788       790       785       788       789       785       788       790
       789       788       790       788       790       791       788       790       792
       788       790       793       791       790       792       791       790       793
       792       790       793       790       793       794       790       793       795
       790       793       796       794       793       795       794       793       796
       795       793       796       793       796       797       793       796       798
       793       796       799       797       796       798       797       796       799
       798       796       799       796       799       800       796       799       801
       796       799       802       800       799       801       800       799       802
       801       799       802       799       802       803       799       802       804
       799       802       805       803       802       804       803       802       805
       804       802       805       802       805       806       802       805       807
       802       805       808       806       805       807       806       805       808
       807       805       808       762       809       810       762       809       811
       762       809       812       810       809       811       810       809       812
       811       809       812       809       812       813       809       812       814
       809       812       815       813       812       814       813       812       815
       814       812       815       812       815       816       812       815       817
       812       815       818       816       815       817       816       815       818
       817       815       818       815       818       819       815       818       820
       815       818       821       819       818       820       819       818       821
       820       818       821       818       821       822       818       821       823
       818       821       824       822       821       823       822       821       824
       823       821       824       821       824       825       821       824       826
       821       824       827       825       824       826       825       824       827
       826       824       827       824       827       828       824       827       829
       824       827       830       828       827       829       828       827       830
       829       827       830       827       830       831       827       830       832
       827       830       833       831       830       832       831       830       833
       832       830       833       830       833       834       830       833       835
       830       833       836       834       833       835       834       833       836
       835       833       836       833       836       837       833       836       838
       833       836       839       837       836       838       837       836       839
       838       836       839       836       839       840       836       839       841
       836       839       842       840       839       841       840       839       842
       841       839       842       839       842       843       839       842       844
       839       842       845       843       842       844       843       842       845
       844       842       845       842       845       846       842       845       847
       842       845       848       846       845       847       846       845       848
       847       845       848       845       848       849       845       848       850
       845       848       851       849       848       850       849       848       851
       850       848       851       853       852       854       853       852       855
       853       852       857       854       852       855       854       852       857
       855       852       857       852       855       856       852       857       858
       852       857       859       852       857       861       858       857       859
       858       857       861       859       857       861       857       859       860
       857       861       862       857       861       863       857       861       868
       862       861       863       862       861       868       863       861       868
       865       864       866       865       864       867       865       864       868
       866       864       867       866       864       868       867       864       868
       864       867       869       861       868       864       867       869       870
       867       869       871       867       869       872       870       869       871
       870       869       872       871       869       872       869       872       873
       869       872       874       869       872       880       873       872       874
       873       872       880       874       872       880       872       874       875
       874       875       876       874       875       877       876       875       877
       875       877       878       875       877       879       875       877       889
       878       877       879       878       877       889       879       877       889
       872       880       881       872       880       882       872       880       883
       881       880       882       881       880       883       882       880       883
       880       883       884       883       884       885       883       884       886
       885       884       886       884       886       887       884       886       888
       884       886       930       887       886       888       887       886       930
       888       886       930       877       889       890       877       889       891
       877       889       892       890       889       891       890       889       892
       891       889       892       889       892       893       889       892       894
       889       892       895       893       892       894       893       892       895
       894       892       895       892       895       896       892       895       897
       892       895       898       896       895       897       896       895       898
       897       895       898       895       898       899       895       898       900
       895       898       901       899       898       900       899       898       901
       900       898       901       898       901       902       898       901       903
       898       901       904       902       901       903       902       901       904
       903       901       904       901       904       905       901       904       906
       901       904       907       905       904       906       905       904       907
       906       904       907       904       907       908       904       907       909
       908       907       909       907       909       910       907       909       911
       910       909       911       909       911       912       909       911       913
       909       911       914       912       911       913       912       911       914
       913       911       914       911       914       915       911       914       916
       911       914       917       915       914       916       915       914       917
       916       914       917       914       917       918       914       917       919
       914       917       920       918       917       919       918       917       920
       919       917       920       917       920       921       917       920       922
       917       920       923       921       920       922       921       920       923
       922       920       923       920       923       924       920       923       925
       920       923       926       924       923       925       924       923       926
       925       923       926       923       926       927       923       926       928
       923       926       929       927       926       928       927       926       929
       928       926       929       886       930       931       886       930       932
       886       930       933       931       930       932       931       930       933
       932       930       933       930       933       934       930       933       935
       930       933       936       934       933       935       934       933       936
       935       933       936       933       936       937       933       936       938
       933       936       939       937       936       938       937       936       939
       938       936       939       936       939       940       936       939       941
       936       939       942       940       939       941       940       939       942
       941       939       942       939       942       943       939       942       944
       939       942       945       943       942       944       943       942       945
       944       942       945       942       945       946       942       945       947
       942       945       948       946       945       947       946       945       948
       947       945       948       945       948       949       945       948       950
       945       948       951       949       948       950       949       948       951
       950       948       951       948       951       952       948       951       953
       948       951       954       952       951       953       952       951       954
       953       951       954       951       954       955       951       954       956
       951       954       957       955       954       956       955       954       957
       956       954       957       954       957       958       954       957       959
       954       957       960       958       957       959       958       957       960
       959       957       960       957       960       961       957       960       962
       957       960       963       961       960       962       961       960       963
       962       960       963       960       963       964       960       963       965
       960       963       966       964       963       965       964       963       966
       965       963       966       963       966       967       963       966       968
       963       966       969       967       966       968       967       966       969
       968       966       969       966       969       970       966       969       971
       966       969       972       970       969       971       970       969       972
       971       969       972       974       973       975       974       973       976
       974       973       977       975       973       976       975       973       977
       976       973       977       973       977       978       973       977       979
       973       977       980       978       977       979       978       977       980
       979       977       980       977       980       981       977       980       982
       977       980       987       981       980       982       981       980       987
       982       980       987       984       983       985       984       983       986
       984       983       987       985       983       986       985       983       987
       986       983       987       983       986       988       980       987       983
       986       988       989       986       988       990       986       988       991
       989       988       990       989       988       991       990       988       991
       988       991       992       988       991       993       988       991       999
       992       991       993       992       991       999       993       991       999
       991       993       994       993       994       995       993       994       996
       995       994       996       994       996       997       994       996       998
       994       996      1008       997       996       998       997       996      1008
       998       996      1008       991       999      1000       991       999      1001
       991       999      1002      1000       999      1001      1000       999      1002
      1001       999      1002       999      1002      1003      1002      1003      1004
      1002      1003      1005      1004      1003      1005      1003      1005      1006
      1003      1005      1007      1003      1005      1052      1006      1005      1007
      1006      1005      1052      1007      1005      1052       996      1008      1009
       996      1008      1010       996      1008      1011      1009      1008      1010
      1009      1008      1011      1010      1008      1011      1008      1011      1012
      1008      1011      1013      1008      1011      1014      1012      1011      1013
      1012      1011      1014      1013      1011      1014      1011      1014      1015
      1011      1014      1016      1011      1014      1017      1015      1014      1016
      1015      1014      1017      1016      1014      1017      1014      1017      1018
      1014      1017      1019      1014      1017      1020      1018      1017      1019
      1018      1017      1020      1019      1017      1020      1017      1020      1021
      1017      1020      1022      1017      1020      1023      1021      1020      1022
      1021      1020      1023      1022      1020      1023      1020      1023      1024
      1020      1023      1025      1020      1023      1026      1024      1023      1025
      1024      1023      1026      1025      1023      1026      1023      1026      1027
      1023      1026      1028      1023      1026      1031      1027      1026      1028
      1027      1026      1031      1028      1026      1031      1026      1028      1029
      1026      1028      1030      1026      1028      1031      1029      1028      1030
      1029      1028      1031      1030      1028      1031      1026      1031      1028
      1026      1031      1032      1026      1031      1033      1028      1031      1032
      1028      1031      1033      1032      1031      1033      1031      1033      1034
      1031      1033      1035      1031      1033      1036      1034      1033      1035
      1034      1033      1036      1035      1033      1036      1033      1036      1037
      1033      1036      1038      1033      1036      1039      1037      1036      1038
      1037      1036      1039      1038      1036      1039      1036      1039      1040
      1036      1039      1041      1036      1039      1042      1040      1039      1041
      1040      1039      1042      1041      1039      1042      1039      1042      1043
      1039      1042      1044      1039      1042      1045      1043      1042      1044
      1043      1042      1045      1044      1042      1045      1042      1045      1046
      1042      1045      1047      1042      1045      1048      1046      1045      1047
      1046      1045      1048      1047      1045      1048      1045      1048      1049
      1045      1048      1050      1045      1048      1051      1049      1048      1050
      1049      1048      1051      1050      1048      1051      1005      1052      1053
      1005      1052      1054      1005      1052      1055      1053      1052      1054
      1053      1052      1055      1054      1052      1055      1052      1055      1056
      1052      1055      1057      1052      1055      1058      1056      1055      1057
      1056      1055      1058      1057      1055      1058      1055      1058      1059
      1055      1058      1060      1055      1058      1061      1059      1058      1060
      1059      1058      1061      1060      1058      1061      1058      1061      1062
      1058      1061      1063      1058      1061      1064      1062      1061      1063
      1062      1061      1064      1063      1061      1064      1061      1064      1065
      1061      1064      1066      1061      1064      1067      1065      1064      1066
      1065      1064      1067      1066      1064      1067      1064      1067      1068
      1064      1067      1069      1064      1067      1070      1068      1067      1069
      1068      1067      1070      1069      1067      1070      1067      1070      1071
      1067      1070      1072      1067      1070      1073      1071      1070      1072
      1071      1070      1073      1072      1070      1073      1070      1073      1074
      1070      1073      1075      1070      1073      1076      1074      1073      1075
      1074      1073      1076      1075      1073      1076      1073      1076      1077
      1073      1076      1078      1073      1076      1079      1077      1076      1078
      1077      1076      1079      1078      1076      1079      1076      1079      1080
      1076      1079      1081      1076      1079      1082      1080      1079      1081
      1080      1079      1082      1081      1079      1082      1079      1082      1083
      1079      1082      1084      1079      1082      1085      1083      1082      1084
      1083      1082      1085      1084      1082      1085      1082      1085      1086
      1082      1085      1087      1082      1085      1088      1086      1085      1087
      1086      1085      1088      1087      1085      1088      1085      1088      1089
      1085      1088      1090      1085      1088      1091      1089      1088      1090
      1089      1088      1091      1090      1088      1091      1088      1091      1092
      1088      1091      1093      1088      1091      1094      1092      1091      1093
      1092      1091      1094      1093      1091      1094      1096      1095      1097
      1096      1095      1098      1096      1095      1099      1097      1095      1098
      1097      1095      1099      1098      1095      1099      1095      1099      1100
      1095      1099      1101      1095      1099      1102      1100      1099      1101
      1100      1099      1102      1101      1099      1102      1099      1102      1103
      1099      1102      1104      1099      1102      1109      1103      1102      1104
      1103      1102      1109      1104      1102      1109      1106      1105      1107
      1106      1105      1108      1106      1105      1109      1107      1105      1108
      1107      1105      1109      1108      1105      1109      1105      1108      1110
      1102      1109      1105      1108      1110      1111      1108      1110      1112
      1108      1110      1113      1111      1110      1112      1111      1110      1113
      1112      1110      1113      1110      1113      1114      1110      1113      1115
      1110      1113      1121      1114      1113      1115      1114      1113      1121
      1115      1113      1121      1113      1115      1116      1115      1116      1117
      1115      1116      1118      1117      1116      1118      1116      1118      1119
      1116      1118      1120      1116      1118      1130      1119      1118      1120
      1119      1118      1130      1120      1118      1130      1113      1121      1122
      1113      1121      1123      1113      1121      1124      1122      1121      1123
      1122      1121      1124      1123      1121      1124      1121      1124      1125
      1124      1125      1126      1124      1125      1127      1126      1125      1127
      1125      1127      1128      1125      1127      1129      1125      1127      1177
      1128      1127      1129      1128      1127      1177      1129      1127      1177
      1118      1130      1131      1118      1130      1132      1118      1130      1133
      1131      1130      1132      1131      1130      1133      1132      1130      1133
      1130      1133      1134      1130      1133      1135      1130      1133      1136
      1134      1133      1135      1134      1133      1136      1135      1133      1136
      1133      1136      1137      1133      1136      1138      1133      1136      1139
      1137      1136      1138      1137      1136      1139      1138      1136      1139
      1136      1139      1140      1136      1139      1141      1136      1139      1142
      1140      1139      1141      1140      1139      1142      1141      1139      1142
      1139      1142      1143      1139      1142      1144      1139      1142      1145
      1143      1142      1144      1143      1142      1145      1144      1142      1145
      1142      1145      1146      1142      1145      1147      1142      1145      1148
      1146      1145      1147      1146      1145      1148      1147      1145      1148
      1145      1148      1149      1145      1148      1150      1149      1148      1150
      1148      1150      1151      1148      1150      1152      1151      1150      1152
      1150      1152      1153      1150      1152      1154      1150      1152      1155
      1153      1152      1154      1153      1152      1155      1154      1152      1155
      1152      1155      1156      1152      1155      1157      1152      1155      1158
      1156      1155      1157      1156      1155      1158      1157      1155      1158
      1155      1158      1159      1155      1158      1160      1155      1158      1161
      1159      1158      1160      1159      1158      1161      1160      1158      1161
      1158      1161      1162      1158      1161      1163      1158      1161      1164
      1162      1161      1163      1162      1161      1164      1163      1161      1164
      1161      1164      1165      1161      1164      1166      1161      1164      1167
      1165      1164      1166      1165      1164      1167      1166      1164      1167
      1164      1167      1168      1164      1167      1169      1164      1167      1170
      1168      1167      1169      1168      1167      1170      1169      1167      1170
      1167      1170      1171      1167      1170      1172      1167      1170      1173
      1171      1170      1172      1171      1170      1173      1172      1170      1173
      1170      1173      1174      1170      1173      1175      1170      1173      1176
      1174      1173      1175      1174      1173      1176      1175      1173      1176
      1127      1177      1178      1127      1177      1179      1127      1177      1180
      1178      1177      1179      1178      1177      1180      1179      1177      1180
      1177      1180      1181      1177      1180      1182      1177      1180      1183
      1181      1180      1182      1181      1180      1183      1182      1180      1183
      1180      1183      1184      1180      1183      1185      1180      1183      1186
      1184      1183      1185      1184      1183      1186      1185      1183      1186
      1183      1186      1187      1183      1186      1188      1183      1186      1189
      1187      1186      1188      1187      1186      1189      1188      1186      1189
      1186      1189      1190      1186      1189      1191      1186      1189      1192
      1190      1189      1191      1190      1189      1192      1191      1189      1192
      1189      1192      1193      1189      1192      1194      1189      1192      1195
      1193      1192      1194      1193      1192      1195      1194      1192      1195
      1192      1195      1196      1192      1195      1197      1192      1195      1198
      1196      1195      1197      1196      1195      1198      1197      1195      1198
      1195      1198      1199      1195      1198      1200      1195      1198      1201
      1199      1198      1200      1199      1198      1201      1200      1198      1201
      1198      1201      1202      1198      1201      1203      1198      1201      1204
      1202      1201      1203      1202      1201      1204      1203      1201      1204
      1201      1204      1205      1201      1204      1206      1201      1204      1207
      1205      1204      1206      1205      1204      1207      1206      1204      1207
      1204      1207      1208      1204      1207      1209      1204      1207      1210
      1208      1207      1209      1208      1207      1210      1209      1207      1210
      1207      1210      1211      1207      1210      1212      1207      1210      1213
      1211      1210      1212      1211      1210      1213      1212      1210      1213
      1210      1213      1214      1210      1213      1215      1210      1213      1216
      1214      1213      1215      1214      1213      1216      1215      1213      1216
      1213      1216      1217      1213      1216      1218      1213      1216      1219
      1217      1216      1218      1217      1216      1219      1218      1216      1219
      1221      1220      1222      1221      1220      1223      1221      1220      1224
      1222      1220      1223      1222      1220      1224      1223      1220      1224
      1220      1224      1225      1220      1224      1226      1220      1224      1227
      1225      1224      1226      1225      1224      1227      1226      1224      1227
      1224      1227      1228      1224      1227      1229      1224      1227      1234
      1228      1227      1229      1228      1227      1234      1229      1227      1234
      1231      1230      1232      1231      1230      1233      1231      1230      1234
      1232      1230      1233      1232      1230      1234      1233      1230      1234
      1230      1233      1235      1227      1234      1230      1233      1235      1236
      1233      1235      1237      1233      1235      1238      1236      1235      1237
      1236      1235      1238      1237      1235      1238      1235      1238      1239
      1235      1238      1240      1235      1238      1246      1239      1238      1240
      1239      1238      1246      1240      1238      1246      1238      1240      1241
      1240      1241      1242      1240      1241      1243      1242      1241      1243
      1241      1243      1244      1241      1243      1245      1241      1243      1255
      1244      1243      1245      1244      1243      1255      1245      1243      1255
      1238      1246      1247      1238      1246      1248      1238      1246      1249
      1247      1246      1248      1247      1246      1249      1248      1246      1249
      1246      1249      1250      1249      1250      1251      1249      1250      1252
      1251      1250      1252      1250      1252      1253      1250      1252      1254
      1250      1252      1299      1253      1252      1254      1253      1252      1299
      1254      1252      1299      1243      1255      1256      1243      1255      1257
      1243      1255      1258      1256      1255      1257      1256      1255      1258
      1257      1255      1258      1255      1258      1259      1255      1258      1260
      1255      1258      1261      1259      1258      1260      1259      1258      1261
      1260      1258      1261      1258      1261      1262      1258      1261      1263
      1258      1261      1264      1262      1261      1263      1262      1261      1264
      1263      1261      1264      1261      1264      1265      1261      1264      1266
      1261      1264      1267      1265      1264      1266      1265      1264      1267
      1266      1264      1267      1264      1267      1268      1264      1267      1269
      1264      1267      1270      1268      1267      1269      1268      1267      1270
      1269      1267      1270      1267      1270      1271      1267      1270      1272
      1267      1270      1273      1271      1270      1272      1271      1270      1273
      1272      1270      1273      1270      1273      1274      1270      1273      1275
      1270      1273      1278      1274      1273      1275      1274      1273      1278
      1275      1273      1278      1273      1275      1276      1273      1275      1277
      1273      1275      1278      1276      1275      1277      1276      1275      1278
      1277      1275      1278      1273      1278      1275      1273      1278      1279
      1273      1278      1280      1275      1278      1279      1275      1278      1280
      1279      1278      1280      1278      1280      1281      1278      1280      1282
      1278      1280      1283      1281      1280      1282      1281      1280      1283
      1282      1280      1283      1280      1283      1284      1280      1283      1285
      1280      1283      1286      1284      1283      1285      1284      1283      1286
      1285      1283      1286      1283      1286      1287      1283      1286      1288
      1283      1286      1289      1287      1286      1288      1287      1286      1289
      1288      1286      1289      1286      1289      1290      1286      1289      1291
      1286      1289      1292      1290      1289      1291      1290      1289      1292
      1291      1289      1292      1289      1292      1293      1289      1292      1294
      1289      1292      1295      1293      1292      1294      1293      1292      1295
      1294      1292      1295      1292      1295      1296      1292      1295      1297
      1292      1295      1298      1296      1295      1297      1296      1295      1298
      1297      1295      1298      1252      1299      1300      1252      1299      1301
      1252      1299      1302      1300      1299      1301      1300      1299      1302
      1301      1299      1302      1299      1302      1303      1299      1302      1304
      1299      1302      1305      1303      1302      1304      1303      1302      1305
      1304      1302      1305      1302      1305      1306      1302      1305      1307
      1302      1305      1308      1306      1305      1307      1306      1305      1308
      1307      1305      1308      1305      1308      1309      1305      1308      1310
      1305      1308      1311      1309      1308      1310      1309      1308      1311
      1310      1308      1311      1308      1311      1312      1308      1311      1313
      1308      1311      1314      1312      1311      1313      1312      1311      1314
      1313      1311      1314      1311      1314      1315      1311      1314      1316
      1311      1314      1317      1315      1314      1316      1315      1314      1317
      1316      1314      1317      1314      1317      1318      1314      1317      1319
      1314      1317      1320      1318      1317      1319      1318      1317      1320
      1319      1317      1320      1317      1320      1321      1317      1320      1322
      1317      1320      1323      1321      1320      1322      1321      1320      1323
      1322      1320      1323      1320      1323      1324      1320      1323      1325
      1320      1323      1326      1324      1323      1325      1324      1323      1326
      1325      1323      1326      1323      1326      1327      1323      1326      1328
      1323      1326      1329      1327      1326      1328      1327      1326      1329
      1328      1326      1329      1326      1329      1330      1326      1329      1331
      1326      1329      1332      1330      1329      1331      1330      1329      1332
      1331      1329      1332      1329      1332      1333      1329      1332      1334
      1329      1332      1335      1333      1332      1334      1333      1332      1335
      1334      1332      1335      1332      1335      1336      1332      1335      1337
      1332      1335      1338      1336      1335      1337      1336      1335      1338
      1337      1335      1338      1335      1338      1339      1335      1338      1340
      1335      1338      1341      1339      1338      1340      1339      1338      1341
      1340      1338      1341      1343      1342      1344      1343      1342      1345
      1343      1342      1346      1344      1342      1345      1344      1342      1346
      1345      1342      1346      1342      1346      1347      1342      1346      1348
      1342      1346      1349      1347      1346      1348      1347      1346      1349
      1348      1346      1349      1346      1349      1350      1346      1349      1351
      1346      1349      1356      1350      1349      1351      1350      1349      1356
      1351      1349      1356      1353      1352      1354      1353      1352      1355
      1353      1352      1356      1354      1352      1355      1354      1352      1356
      1355      1352      1356      1352      1355      1357      1349      1356      1352
      1355      1357      1358      1355      1357      1359      1355      1357      1360
      1358      1357      1359      1358      1357      1360      1359      1357      1360
      1357      1360      1361      1357      1360      1362      1357      1360      1368
      1361      1360      1362      1361      1360      1368      1362      1360      1368
      1360      1362      1363      1362      1363      1364      1362      1363      1365
      1364      1363      1365      1363      1365      1366      1363      1365      1367
      1363      1365      1377      1366      1365      1367      1366      1365      1377
      1367      1365      1377      1360      1368      1369      1360      1368      1370
      1360      1368      1371      1369      1368      1370      1369      1368      1371
      1370      1368      1371      1368      1371      1372      1371      1372      1373
      1371      1372      1374      1373      1372      1374      1372      1374      1375
      1372      1374      1376      1372      1374      1421      1375      1374      1376
      1375      1374      1421      1376      1374      1421      1365      1377      1378
      1365      1377      1379      1365      1377      1380      1378      1377      1379
      1378      1377      1380      1379      1377      1380      1377      1380      1381
      1377      1380      1382      1377      1380      1383      1381      1380      1382
      1381      1380      1383      1382      1380      1383      1380      1383      1384
      1380      1383      1385      1380      1383      1386      1384      1383      1385
      1384      1383      1386      1385      1383      1386      1383      1386      1387
      1383      1386      1388      1383      1386      1389      1387      1386      1388
      1387      1386      1389      1388      1386      1389      1386      1389      1390
      1386      1389      1391      1386      1389      1392      1390      1389      1391
      1390      1389      1392      1391      1389      1392      1389      1392      1393
      1389      1392      1394      1389      1392      1395      1393      1392      1394
      1393      1392      1395      1394      1392      1395      1392      1395      1396
      1392      1395      1397      1392      1395      1400      1396      1395      1397
      1396      1395      1400      1397      1395      1400      1395      1397      1398
      1395      1397      1399      1395      1397      1400      1398      1397      1399
      1398      1397      1400      1399      1397      1400      1395      1400      1397
      1395      1400      1401      1395      1400      1402      1397      1400      1401
      1397      1400      1402      1401      1400      1402      1400      1402      1403
      1400      1402      1404      1400      1402      1405      1403      1402      1404
      1403      1402      1405      1404      1402      1405      1402      1405      1406
      1402      1405      1407      1402      1405      1408      1406      1405      1407
      1406      1405      1408      1407      1405      1408      1405      1408      1409
      1405      1408      1410      1405      1408      1411      1409      1408      1410
      1409      1408      1411      1410      1408      1411      1408      1411      1412
      1408      1411      1413      1408      1411      1414      1412      1411      1413
      1412      1411      1414      1413      1411      1414      1411      1414      1415
      1411      1414      1416      1411      1414      1417      1415      1414      1416
      1415      1414      1417      1416      1414      1417      1414      1417      1418
      1414      1417      1419      1414      1417      1420      1418      1417      1419
      1418      1417      1420      1419      1417      1420      1374      1421      1422
      1374      1421      1423      1374      1421      1424      1422      1421      1423
      1422      1421      1424      1423      1421      1424      1421      1424      1425
      1421      1424      1426      1421      1424      1427      1425      1424      1426
      1425      1424      1427      1426      1424      1427      1424      1427      1428
      1424      1427      1429      1424      1427      1430      1428      1427      1429
      1428      1427      1430      1429      1427      1430      1427      1430      1431
      1427      1430      1432      1427      1430      1433      1431      1430      1432
      1431      1430      1433      1432      1430      1433      1430      1433      1434
      1430      1433      1435      1430      1433      1436      1434      1433      1435
      1434      1433      1436      1435      1433      1436      1433      1436      1437
      1433      1436      1438      1433      1436      1439      1437      1436      1438
      1437      1436      1439      1438      1436      1439      1436      1439      1440
      1436      1439      1441      1436      1439      1442      1440      1439      1441
      1440      1439      1442      1441      1439      1442      1439      1442      1443
      1439      1442      1444      1439      1442      1445      1443      1442      1444
      1443      1442      1445      1444      1442      1445      1442      1445      1446
      1442      1445      1447      1442      1445      1448      1446      1445      1447
      1446      1445      1448      1447      1445      1448      1445      1448      1449
      1445      1448      1450      1445      1448      1451      1449      1448      1450
      1449      1448      1451      1450      1448      1451      1448      1451      1452
      1448      1451      1453      1448      1451      1454      1452      1451      1453
      1452      1451      1454      1453      1451      1454      1451      1454      1455
      1451      1454      1456      1451      1454      1457      1455      1454      1456
      1455      1454      1457      1456      1454      1457      1454      1457      1458
      1454      1457      1459      1454      1457      1460      1458      1457      1459
      1458      1457      1460      1459      1457      1460      1457      1460      1461
      1457      1460      1462      1457      1460      1463      1461      1460      1462
      1461      1460      1463      1462      1460      1463      1465      1464      1466
      1465      1464      1467      1465      1464      1468      1466      1464      1467
      1466      1464      1468      1467      1464      1468      1464      1468      1469
      1464      1468      1470      1464      1468      1471      1469      1468      1470
      1469      1468      1471      1470      1468      1471      1468      1471      1472
      1468      1471      1473      1468      1471      1478      1472      1471      1473
      1472      1471      1478      1473      1471      1478      1475      1474      1476
      1475      1474      1477      1475      1474      1478      1476      1474      1477
      1476      1474      1478      1477      1474      1478      1474      1477      1479
      1471      1478      1474      1477      1479      1480      1477      1479      1481
      1477      1479      1482      1480      1479      1481      1480      1479      1482
      1481      1479      1482      1479      1482      1483      1479      1482      1484
      1479      1482      1490      1483      1482      1484      1483      1482      1490
      1484      1482      1490      1482      1484      1485      1484      1485      1486
      1484      1485      1487      1486      1485      1487      1485      1487      1488
      1485      1487      1489      1485      1487      1499      1488      1487      1489
      1488      1487      1499      1489      1487      1499      1482      1490      1491
      1482      1490      1492      1482      1490      1493      1491      1490      1492
      1491      1490      1493      1492      1490      1493      1490      1493      1494
      1493      1494      1495      1493      1494      1496      1495      1494      1496
      1494      1496      1497      1494      1496      1498      1494      1496      1546
      1497      1496      1498      1497      1496      1546      1498      1496      1546
      1487      1499      1500      1487      1499      1501      1487      1499      1502
      1500      1499      1501      1500      1499      1502      1501      1499      1502
      1499      1502      1503      1499      1502      1504      1499      1502      1505
      1503      1502      1504      1503      1502      1505      1504      1502      1505
      1502      1505      1506      1502      1505      1507      1502      1505      1508
      1506      1505      1507      1506      1505      1508      1507      1505      1508
      1505      1508      1509      1505      1508      1510      1505      1508      1511
      1509      1508      1510      1509      1508      1511      1510      1508      1511
      1508      1511      1512      1508      1511      1513      1508      1511      1514
      1512      1511      1513      1512      1511      1514      1513      1511      1514
      1511      1514      1515      1511      1514      1516      1511      1514      1517
      1515      1514      1516      1515      1514      1517      1516      1514      1517
      1514      1517      1518      1514      1517      1519      1518      1517      1519
      1517      1519      1520      1517      1519      1521      1520      1519      1521
      1519      1521      1522      1519      1521      1523      1519      1521      1524
      1522      1521      1523      1522      1521      1524      1523      1521      1524
      1521      1524      1525      1521      1524      1526      1521      1524      1527
      1525      1524      1526      1525      1524      1527      1526      1524      1527
      1524      1527      1528      1524      1527      1529      1524      1527      1530
      1528      1527      1529      1528      1527      1530      1529      1527      1530
      1527      1530      1531      1527      1530      1532      1527      1530      1533
      1531      1530      1532      1531      1530      1533      1532      1530      1533
      1530      1533      1534      1530      1533      1535      1530      1533      1536
      1534      1533      1535      1534      1533      1536      1535      1533      1536
      1533      1536      1537      1533      1536      1538      1533      1536      1539
      1537      1536      1538      1537      1536      1539      1538      1536      1539
      1536      1539      1540      1536      1539      1541      1536      1539      1542
      1540      1539      1541      1540      1539      1542      1541      1539      1542
      1539      1542      1543      1539      1542      1544      1539      1542      1545
      1543      1542      1544      1543      1542      1545      1544      1542      1545
      1496      1546      1547      1496      1546      1548      1496      1546      1549
      1547      1546      1548      1547      1546      1549      1548      1546      1549
      1546      1549      1550      1546      1549      1551      1546      1549      1552
      1550      1549      1551      1550      1549      1552      1551      1549      1552
      1549      1552      1553      1549      1552      1554      1549      1552      1555
      1553      1552      1554      1553      1552      1555      1554      1552      1555
      1552      1555      1556      1552      1555      1557      1552      1555      1558
      1556      1555      1557      1556      1555      1558      1557      1555      1558
      1555      1558      1559      1555      1558      1560      1555      1558      1561
      1559      1558      1560      1559      1558      1561      1560      1558      1561
      1558      1561      1562      1558      1561      1563      1558      1561      1564
      1562      1561      1563      1562      1561      1564      1563      1561      1564
      1561      1564      1565      1561      1564      1566      1561      1564      1567
      1565      1564      1566      1565      1564      1567      1566      1564      1567
      1564      1567      1568      1564      1567      1569      1564      1567      1570
      1568      1567      1569      1568      1567      1570      1569      1567      1570
      1567      1570      1571      1567      1570      1572      1567      1570      1573
      1571      1570      1572      1571      1570      1573      1572      1570      1573
      1570      1573      1574      1570      1573      1575      1570      1573      1576
      1574      1573      1575      1574      1573      1576      1575      1573      1576
      1573      1576      1577      1573      1576      1578      1573      1576      1579
      1577      1576      1578      1577      1576      1579      1578      1576      1579
      1576      1579      1580      1576      1579      1581      1576      1579      1582
      1580      1579      1581      1580      1579      1582      1581      1579      1582
      1579      1582      1583      1579      1582      1584      1579      1582      1585
      1583      1582      1584      1583      1582      1585      1584      1582      1585
      1582      1585      1586      1582      1585      1587      1582      1585      1588
      1586      1585      1587      1586      1585      1588      1587      1585      1588
      1590      1589      1591      1590      1589      1592      1590      1589      1593
      1591      1589      1592      1591      1589      1593      1592      1589      1593
      1589      1593      1594      1589      1593      1595      1589      1593      1596
      1594      1593      1595      1594      1593      1596      1595      1593      1596
      1593      1596      1597      1593      1596      1598      1593      1596      1603
      1597      1596      1598      1597      1596      1603      1598      1596      1603
      1600      1599      1601      1600      1599      1602      1600      1599      1603
      1601      1599      1602      1601      1599      1603      1602      1599      1603
      1599      1602      1604      1596      1603      1599      1602      1604      1605
      1602      1604      1606      1602      1604      1607      1605      1604      1606
      1605      1604      1607      1606      1604      1607      1604      1607      1608
      1604      1607      1609      1604      1607      1615      1608      1607      1609
      1608      1607      1615      1609      1607      1615      1607      1609      1610
      1609      1610      1611      1609      1610      1612      1611      1610      1612
      1610      1612      1613      1610      1612      1614      1610      1612      1624
      1613      1612      1614      1613      1612      1624      1614      1612      1624
      1607      1615      1616      1607      1615      1617      1607      1615      1618
      1616      1615      1617      1616      1615      1618      1617      1615      1618
      1615      1618      1619      1618      1619      1620      1618      1619      1621
      1620      1619      1621      1619      1621      1622      1619      1621      1623
      1619      1621      1668      1622      1621      1623      1622      1621      1668
      1623      1621      1668      1612      1624      1625      1612      1624      1626
      1612      1624      1627      1625      1624      1626      1625      1624      1627
      1626      1624      1627      1624      1627      1628      1624      1627      1629
      1624      1627      1630      1628      1627      1629      1628      1627      1630
      1629      1627      1630      1627      1630      1631      1627      1630      1632
      1627      1630      1633      1631      1630      1632      1631      1630      1633
      1632      1630      1633      1630      1633      1634      1630      1633      1635
      1630      1633      1636      1634      1633      1635      1634      1633      1636
      1635      1633      1636      1633      1636      1637      1633      1636      1638
      1633      1636      1639      1637      1636      1638      1637      1636      1639
      1638      1636      1639      1636      1639      1640      1636      1639      1641
      1636      1639      1642      1640      1639      1641      1640      1639      1642
      1641      1639      1642      1639      1642      1643      1639      1642      1644
      1639      1642      1647      1643      1642      1644      1643      1642      1647
      1644      1642      1647      1642      1644      1645      1642      1644      1646
      1642      1644      1647      1645      1644      1646      1645      1644      1647
      1646      1644      1647      1642      1647      1644      1642      1647      1648
      1642      1647      1649      1644      1647      1648      1644      1647      1649
      1648      1647      1649      1647      1649      1650      1647      1649      1651
      1647      1649      1652      1650      1649      1651      1650      1649      1652
      1651      1649      1652      1649      1652      1653      1649      1652      1654
      1649      1652      1655      1653      1652      1654      1653      1652      1655
      1654      1652      1655      1652      1655      1656      1652      1655      1657
      1652      1655      1658      1656      1655      1657      1656      1655      1658
      1657      1655      1658      1655      1658      1659      1655      1658      1660
      1655      1658      1661      1659      1658      1660      1659      1658      1661
      1660      1658      1661      1658      1661      1662      1658      1661      1663
      1658      1661      1664      1662      1661      1663      1662      1661      1664
      1663      1661      1664      1661      1664      1665      1661      1664      1666
      1661      1664      1667      1665      1664      1666      1665      1664      1667
      1666      1664      1667      1621      1668      1669      1621      1668      1670
      1621      1668      1671      1669      1668      1670      1669      1668      1671
      1670      1668      1671      1668      1671      1672      1668      1671      1673
      1668      1671      1674      1672      1671      1673      1672      1671      1674
      1673      1671      1674      1671      1674      1675      1671      1674      1676
      1671      1674      1677      1675      1674      1676      1675      1674      1677
      1676      1674      1677      1674      1677      1678      1674      1677      1679
      1674      1677      1680      1678      1677      1679      1678      1677      1680
      1679      1677      1680      1677      1680      1681      1677      1680      1682
      1677      1680      1683      1681      1680      1682      1681      1680      1683
      1682      1680      1683      1680      1683      1684      1680      1683      1685
      1680      1683      1686      1684      1683      1685      1684      1683      1686
      1685      1683      1686      1683      1686      1687      1683      1686      1688
      1683      1686      1689      1687      1686      1688      1687      1686      1689
      1688      1686      1689      1686      1689      1690      1686      1689      1691
      1686      1689      1692      1690      1689      1691      1690      1689      1692
      1691      1689      1692      1689      1692      1693      1689      1692      1694
      1689      1692      1695      1693      1692      1694      1693      1692      1695
      1694      1692      1695      1692      1695      1696      1692      1695      1697
      1692      1695      1698      1696      1695      1697      1696      1695      1698
      1697      1695      1698      1695      1698      1699      1695      1698      1700
      1695      1698      1701      1699      1698      1700      1699      1698      1701
      1700      1698      1701      1698      1701      1702      1698      1701      1703
      1698      1701      1704      1702      1701      1703      1702      1701      1704
      1703      1701      1704      1701      1704      1705      1701      1704      1706
      1701      1704      1707      1705      1704      1706      1705      1704      1707
      1706      1704      1707      1704      1707      1708      1704      1707      1709
      1704      1707      1710      1708      1707      1709      1708      1707      1710
      1709      1707      1710      1712      1711      1713      1712      1711      1714
      1712      1711      1715      1713      1711      1714      1713      1711      1715
      1714      1711      1715      1711      1715      1716      1711      1715      1717
      1711      1715      1718      1716      1715      1717      1716      1715      1718
      1717      1715      1718      1715      1718      1719      1715      1718      1720
      1715      1718      1725      1719      1718      1720      1719      1718      1725
      1720      1718      1725      1722      1721      1723      1722      1721      1724
      1722      1721      1725      1723      1721      1724      1723      1721      1725
      1724      1721      1725      1721      1724      1726      1718      1725      1721
      1724      1726      1727      1724      1726      1728      1724      1726      1729
      1727      1726      1728      1727      1726      1729      1728      1726      1729
      1726      1729      1730      1726      1729      1731      1726      1729      1737
      1730      1729      1731      1730      1729      1737      1731      1729      1737
      1729      1731      1732      1731      1732      1733      1731      1732      1734
      1733      1732      1734      1732      1734      1735      1732      1734      1736
      1732      1734      1746      1735      1734      1736      1735      1734      1746
      1736      1734      1746      1729      1737      1738      1729      1737      1739
      1729      1737      1740      1738      1737      1739      1738      1737      1740
      1739      1737      1740      1737      1740      1741      1740      1741      1742
      1740      1741      1743      1742      1741      1743      1741      1743      1744
      1741      1743      1745      1741      1743      1787      1744      1743      1745
      1744      1743      1787      1745      1743      1787      1734      1746      1747
      1734      1746      1748      1734      1746      1749      1747      1746      1748
      1747      1746      1749      1748      1746      1749      1746      1749      1750
      1746      1749      1751      1746      1749      1752      1750      1749      1751
      1750      1749      1752      1751      1749      1752      1749      1752      1753
      1749      1752      1754      1749      1752      1755      1753      1752      1754
      1753      1752      1755      1754      1752      1755      1752      1755      1756
      1752      1755      1757      1752      1755      1758      1756      1755      1757
      1756      1755      1758      1757      1755      1758      1755      1758      1759
      1755      1758      1760      1755      1758      1761      1759      1758      1760
      1759      1758      1761      1760      1758      1761      1758      1761      1762
      1758      1761      1763      1758      1761      1764      1762      1761      1763
      1762      1761      1764      1763      1761      1764      1761      1764      1765
      1761      1764      1766      1765      1764      1766      1764      1766      1767
      1764      1766      1768      1767      1766      1768      1766      1768      1769
      1766      1768      1770      1766      1768      1771      1769      1768      1770
      1769      1768      1771      1770      1768      1771      1768      1771      1772
      1768      1771      1773      1768      1771      1774      1772      1771      1773
      1772      1771      1774      1773      1771      1774      1771      1774      1775
      1771      1774      1776      1771      1774      1777      1775      1774      1776
      1775      1774      1777      1776      1774      1777      1774      1777      1778
      1774      1777      1779      1774      1777      1780      1778      1777      1779
      1778      1777      1780      1779      1777      1780      1777      1780      1781
      1777      1780      1782      1777      1780      1783      1781      1780      1782
      1781      1780      1783      1782      1780      1783      1780      1783      1784
      1780      1783      1785      1780      1783      1786      1784      1783      1785
      1784      1783      1786      1785      1783      1786      1743      1787      1788
      1743      1787      1789      1743      1787      1790      1788      1787      1789
      1788      1787      1790      1789      1787      1790      1787      1790      1791
      1787      1790      1792      1787      1790      1793      1791      1790      1792
      1791      1790      1793      1792      1790      1793      1790      1793      1794
      1790      1793      1795      1790      1793      1796      1794      1793      1795
      1794      1793      1796      1795      1793      1796      1793      1796      1797
      1793      1796      1798      1793      1796      1799      1797      1796      1798
      1797      1796      1799      1798      1796      1799      1796      1799      1800
      1796      1799      1801      1796      1799      1802      1800      1799      1801
      1800      1799      1802      1801      1799      1802      1799      1802      1803
      1799      1802      1804      1799      1802      1805      1803      1802      1804
      1803      1802      1805      1804      1802      1805      1802      1805      1806
      1802      1805      1807      1806      1805      1807      1805      1807      1808
      1805      1807      1809      1808      1807      1809      1807      1809      1810
      1807      1809      1811      1807      1809      1812      1810      1809      1811
      1810      1809      1812      1811      1809      1812      1809      1812      1813
      1809      1812      1814      1809      1812      1815      1813      1812      1814
      1813      1812      1815      1814      1812      1815      1812      1815      1816
      1812      1815      1817      1812      1815      1818      1816      1815      1817
      1816      1815      1818      1817      1815      1818      1815      1818      1819
      1815      1818      1820      1815      1818      1821      1819      1818      1820
      1819      1818      1821      1820      1818      1821      1818      1821      1822
      1818      1821      1823      1818      1821      1824      1822      1821      1823
      1822      1821      1824      1823      1821      1824      1821      1824      1825
      1821      1824      1826      1821      1824      1827      1825      1824      1826
      1825      1824      1827      1826      1824      1827      1824      1827      1828
      1824      1827      1829      1824      1827      1830      1828      1827      1829
      1828      1827      1830      1829      1827      1830      1827      1830      1831
      1827      1830      1832      1827      1830      1833      1831      1830      1832
      1831      1830      1833      1832      1830      1833      1835      1834      1836
      1835      1834      1837      1835      1834      1839      1836      1834      1837
      1836      1834      1839      1837      1834      1839      1834      1837      1838
      1834      1839      1840      1834      1839      1841      1834      1839      1843
      1840      1839      1841      1840      1839      1843      1841      1839      1843
      1839      1841      1842      1839      1843      1844      1839      1843      1845
      1839      1843      1850      1844      1843      1845      1844      1843      1850
      1845      1843      1850      1847      1846      1848      1847      1846      1849
      1847      1846      1850      1848      1846      1849      1848      1846      1850
      1849      1846      1850      1846      1849      1851      1843      1850      1846
      1849      1851      1852      1849      1851      1853      1849      1851      1854
      1852      1851      1853      1852      1851      1854      1853      1851      1854
      1851      1854      1855      1851      1854      1856      1851      1854      1862
      1855      1854      1856      1855      1854      1862      1856      1854      1862
      1854      1856      1857      1856      1857      1858      1856      1857      1859
      1858      1857      1859      1857      1859      1860      1857      1859      1861
      1857      1859      1871      1860      1859      1861      1860      1859      1871
      1861      1859      1871      1854      1862      1863      1854      1862      1864
      1854      1862      1865      1863      1862      1864      1863      1862      1865
      1864      1862      1865      1862      1865      1866      1865      1866      1867
      1865      1866      1868      1867      1866      1868      1866      1868      1869
      1866      1868      1870      1866      1868      1912      1869      1868      1870
      1869      1868      1912      1870      1868      1912      1859      1871      1872
      1859      1871      1873      1859      1871      1874      1872      1871      1873
      1872      1871      1874      1873      1871      1874      1871      1874      1875
      1871      1874      1876      1871      1874      1877      1875      1874      1876
      1875      1874      1877      1876      1874      1877      1874      1877      1878
      1874      1877      1879      1874      1877      1880      1878      1877      1879
      1878      1877      1880      1879      1877      1880      1877      1880      1881
      1877      1880      1882      1877      1880      1883      1881      1880      1882
      1881      1880      1883      1882      1880      1883      1880      1883      1884
      1880      1883      1885      1880      1883      1886      1884      1883      1885
      1884      1883      1886      1885      1883      1886      1883      1886      1887
      1883      1886      1888      1883      1886      1889      1887      1886      1888
      1887      1886      1889      1888      1886      1889      1886      1889      1890
      1886      1889      1891      1890      1889      1891      1889      1891      1892
      1889      1891      1893      1892      1891      1893      1891      1893      1894
      1891      1893      1895      1891      1893      1896      1894      1893      1895
      1894      1893      1896      1895      1893      1896      1893      1896      1897
      1893      1896      1898      1893      1896      1899      1897      1896      1898
      1897      1896      1899      1898      1896      1899      1896      1899      1900
      1896      1899      1901      1896      1899      1902      1900      1899      1901
      1900      1899      1902      1901      1899      1902      1899      1902      1903
      1899      1902      1904      1899      1902      1905      1903      1902      1904
      1903      1902      1905      1904      1902      1905      1902      1905      1906
      1902      1905      1907      1902      1905      1908      1906      1905      1907
      1906      1905      1908      1907      1905      1908      1905      1908      1909
      1905      1908      1910      1905      1908      1911      1909      1908      1910
      1909      1908      1911      1910      1908      1911      1868      1912      1913
      1868      1912      1914      1868      1912      1915      1913      1912      1914
      1913      1912      1915      1914      1912      1915      1912      1915      1916
      1912      1915      1917      1912      1915      1918      1916      1915      1917
      1916      1915      1918      1917      1915      1918      1915      1918      1919
      1915      1918      1920      1915      1918      1921      1919      1918      1920
      1919      1918      1921      1920      1918      1921      1918      1921      1922
      1918      1921      1923      1918      1921      1924      1922      1921      1923
      1922      1921      1924      1923      1921      1924      1921      1924      1925
      1921      1924      1926      1921      1924      1927      1925      1924      1926
      1925      1924      1927      1926      1924      1927      1924      1927      1928
      1924      1927      1929      1924      1927      1930      1928      1927      1929
      1928      1927      1930      1929      1927      1930      1927      1930      1931
      1927      1930      1932      1927      1930      1933      1931      1930      1932
      1931      1930      1933      1932      1930      1933      1930      1933      1934
      1930      1933      1935      1930      1933      1936      1934      1933      1935
      1934      1933      1936      1935      1933      1936      1933      1936      1937
      1933      1936      1938      1933      1936      1939      1937      1936      1938
      1937      1936      1939      1938      1936      1939      1936      1939      1940
      1936      1939      1941      1936      1939      1942      1940      1939      1941
      1940      1939      1942      1941      1939      1942      1939      1942      1943
      1939      1942      1944      1939      1942      1945      1943      1942      1944
      1943      1942      1945      1944      1942      1945      1942      1945      1946
      1942      1945      1947      1942      1945      1948      1946      1945      1947
      1946      1945      1948      1947      1945      1948      1945      1948      1949
      1945      1948      1950      1945      1948      1951      1949      1948      1950
      1949      1948      1951      1950      1948      1951      1948      1951      1952
      1948      1951      1953      1948      1951      1954      1952      1951      1953
      1952      1951      1954      1953      1951      1954      1956      1955      1957
      1956      1955      1958      1956      1955      1959      1957      1955      1958
      1957      1955      1959      1958      1955      1959      1955      1959      1960
      1955      1959      1961      1955      1959      1962      1960      1959      1961
      1960      1959      1962      1961      1959      1962      1959      1962      1963
      1959      1962      1964      1959      1962      1969      1963      1962      1964
      1963      1962      1969      1964      1962      1969      1966      1965      1967
      1966      1965      1968      1966      1965      1969      1967      1965      1968
      1967      1965      1969      1968      1965      1969      1965      1968      1970
      1962      1969      1965      1968      1970      1971      1968      1970      1972
      1968      1970      1973      1971      1970      1972      1971      1970      1973
      1972      1970      1973      1970      1973      1974      1970      1973      1975
      1970      1973      1981      1974      1973      1975      1974      1973      1981
      1975      1973      1981      1973      1975      1976      1975      1976      1977
      1975      1976      1978      1977      1976      1978      1976      1978      1979
      1976      1978      1980      1976      1978      1990      1979      1978      1980
      1979      1978      1990      1980      1978      1990      1973      1981      1982
      1973      1981      1983      1973      1981      1984      1982      1981      1983
      1982      1981      1984      1983      1981      1984      1981      1984      1985
      1984      1985      1986      1984      1985      1987      1986      1985      1987
      1985      1987      1988      1985      1987      1989      1985      1987      2034
      1988      1987      1989      1988      1987      2034      1989      1987      2034
      1978      1990      1991      1978      1990      1992      1978      1990      1993
      1991      1990      1992      1991      1990      1993      1992      1990      1993
      1990      1993      1994      1990      1993      1995      1990      1993      1996
      1994      1993      1995      1994      1993      1996      1995      1993      1996
      1993      1996      1997      1993      1996      1998      1993      1996      1999
      1997      1996      1998      1997      1996      1999      1998      1996      1999
      1996      1999      2000      1996      1999      2001      1996      1999      2002
      2000      1999      2001      2000      1999      2002      2001      1999      2002
      1999      2002      2003      1999      2002      2004      1999      2002      2005
      2003      2002      2004      2003      2002      2005      2004      2002      2005
      2002      2005      2006      2002      2005      2007      2002      2005      2008
      2006      2005      2007      2006      2005      2008      2007      2005      2008
      2005      2008      2009      2005      2008      2010      2005      2008      2013
      2009      2008      2010      2009      2008      2013      2010      2008      2013
      2008      2010      2011      2008      2010      2012      2008      2010      2013
      2011      2010      2012      2011      2010      2013      2012      2010      2013
      2008      2013      2010      2008      2013      2014      2008      2013      2015
      2010      2013      2014      2010      2013      2015      2014      2013      2015
      2013      2015      2016      2013      2015      2017      2013      2015      2018
      2016      2015      2017      2016      2015      2018      2017      2015      2018
      2015      2018      2019      2015      2018      2020      2015      2018      2021
      2019      2018      2020      2019      2018      2021      2020      2018      2021
      2018      2021      2022      2018      2021      2023      2018      2021      2024
      2022      2021      2023      2022      2021      2024      2023      2021      2024
      2021      2024      2025      2021      2024      2026      2021      2024      2027
      2025      2024      2026      2025      2024      2027      2026      2024      2027
      2024      2027      2028      2024      2027      2029      2024      2027      2030
      2028      2027      2029      2028      2027      2030      2029      2027      2030
      2027      2030      2031      2027      2030      2032      2027      2030      2033
      2031      2030      2032      2031      2030      2033      2032      2030      2033
      1987      2034      2035      1987      2034      2036      1987      2034      2037
      2035      2034      2036      2035      2034      2037      2036      2034      2037
      2034      2037      2038      2034      2037      2039      2034      2037      2040
      2038      2037      2039      2038      2037      2040      2039      2037      2040
      2037      2040      2041      2037      2040      2042      2037      2040      2043
      2041      2040      2042      2041      2040      2043      2042      2040      2043
      2040      2043      2044      2040      2043      2045      2040      2043      2046
      2044      2043      2045      2044      2043      2046      2045      2043      2046
      2043      2046      2047      2043      2046      2048      2043      2046      2049
      2047      2046      2048      2047      2046      2049      2048      2046      2049
      2046      2049      2050      2046      2049      2051      2046      2049      2052
      2050      2049      2051      2050      2049      2052      2051      2049      2052
      2049      2052      2053      2049      2052      2054      2049      2052      2055
      2053      2052      2054      2053      2052      2055      2054      2052      2055
      2052      2055      2056      2052      2055      2057      2052      2055      2058
      2056      2055      2057      2056      2055      2058      2057      2055      2058
      2055      2058      2059      2055      2058      2060      2055      2058      2061
      2059      2058      2060      2059      2058      2061      2060      2058      2061
      2058      2061      2062      2058      2061      2063      2058      2061      2064
      2062      2061      2063      2062      2061      2064      2063      2061      2064
      2061      2064      2065      2061      2064      2066      2061      2064      2067
      2065      2064      2066      2065      2064      2067      2066      2064      2067
      2064      2067      2068      2064      2067      2069      2064      2067      2070
      2068      2067      2069      2068      2067      2070      2069      2067      2070
      2067      2070      2071      2067      2070      2072      2067      2070      2073
      2071      2070      2072      2071      2070      2073      2072      2070      2073
      2070      2073      2074      2070      2073      2075      2070      2073      2076
      2074      2073      2075      2074      2073      2076      2075      2073      2076
      2078      2077      2079      2078      2077      2080      2078      2077      2081
      2079      2077      2080      2079      2077      2081      2080      2077      2081
      2077      2081      2082      2077      2081      2083      2077      2081      2084
      2082      2081      2083      2082      2081      2084      2083      2081      2084
      2081      2084      2085      2081      2084      2086      2081      2084      2091
      2085      2084      2086      2085      2084      2091      2086      2084      2091
      2088      2087      2089      2088      2087      2090      2088      2087      2091
      2089      2087      2090      2089      2087      2091      2090      2087      2091
      2087      2090      2092      2084      2091      2087      2090      2092      2093
      2090      2092      2094      2090      2092      2095      2093      2092      2094
      2093      2092      2095      2094      2092      2095      2092      2095      2096
      2092      2095      2097      2092      2095      2103      2096      2095      2097
      2096      2095      2103      2097      2095      2103      2095      2097      2098
      2097      2098      2099      2097      2098      2100      2099      2098      2100
      2098      2100      2101      2098      2100      2102      2098      2100      2112
      2101      2100      2102      2101      2100      2112      2102      2100      2112
      2095      2103      2104      2095      2103      2105      2095      2103      2106
      2104      2103      2105      2104      2103      2106      2105      2103      2106
      2103      2106      2107      2106      2107      2108      2106      2107      2109
      2108      2107      2109      2107      2109      2110      2107      2109      2111
      2107      2109      2156      2110      2109      2111      2110      2109      2156
      2111      2109      2156      2100      2112      2113      2100      2112      2114
      2100      2112      2115      2113      2112      2114      2113      2112      2115
      2114      2112      2115      2112      2115      2116      2112      2115      2117
      2112      2115      2118      2116      2115      2117      2116      2115      2118
      2117      2115      2118      2115      2118      2119      2115      2118      2120
      2115      2118      2121      2119      2118      2120      2119      2118      2121
      2120      2118      2121      2118      2121      2122      2118      2121      2123
      2118      2121      2124      2122      2121      2123      2122      2121      2124
      2123      2121      2124      2121      2124      2125      2121      2124      2126
      2121      2124      2127      2125      2124      2126      2125      2124      2127
      2126      2124      2127      2124      2127      2128      2124      2127      2129
      2124      2127      2130      2128      2127      2129      2128      2127      2130
      2129      2127      2130      2127      2130      2131      2127      2130      2132
      2127      2130      2135      2131      2130      2132      2131      2130      2135
      2132      2130      2135      2130      2132      2133      2130      2132      2134
      2130      2132      2135      2133      2132      2134      2133      2132      2135
      2134      2132      2135      2130      2135      2132      2130      2135      2136
      2130      2135      2137      2132      2135      2136      2132      2135      2137
      2136      2135      2137      2135      2137      2138      2135      2137      2139
      2135      2137      2140      2138      2137      2139      2138      2137      2140
      2139      2137      2140      2137      2140      2141      2137      2140      2142
      2137      2140      2143      2141      2140      2142      2141      2140      2143
      2142      2140      2143      2140      2143      2144      2140      2143      2145
      2140      2143      2146      2144      2143      2145      2144      2143      2146
      2145      2143      2146      2143      2146      2147      2143      2146      2148
      2143      2146      2149      2147      2146      2148      2147      2146      2149
      2148      2146      2149      2146      2149      2150      2146      2149      2151
      2146      2149      2152      2150      2149      2151      2150      2149      2152
      2151      2149      2152      2149      2152      2153      2149      2152      2154
      2149      2152      2155      2153      2152      2154      2153      2152      2155
      2154      2152      2155      2109      2156      2157      2109      2156      2158
      2109      2156      2159      2157      2156      2158      2157      2156      2159
      2158      2156      2159      2156      2159      2160      2156      2159      2161
      2156      2159      2162      2160      2159      2161      2160      2159      2162
      2161      2159      2162      2159      2162      2163      2159      2162      2164
      2159      2162      2165      2163      2162      2164      2163      2162      2165
      2164      2162      2165      2162      2165      2166      2162      2165      2167
      2162      2165      2168      2166      2165      2167      2166      2165      2168
      2167      2165      2168      2165      2168      2169      2165      2168      2170
      2165      2168      2171      2169      2168      2170      2169      2168      2171
      2170      2168      2171      2168      2171      2172      2168      2171      2173
      2168      2171      2174      2172      2171      2173      2172      2171      2174
      2173      2171      2174      2171      2174      2175      2171      2174      2176
      2171      2174      2177      2175      2174      2176      2175      2174      2177
      2176      2174      2177      2174      2177      2178      2174      2177      2179
      2174      2177      2180      2178      2177      2179      2178      2177      2180
      2179      2177      2180      2177      2180      2181      2177      2180      2182
      2177      2180      2183      2181      2180      2182      2181      2180      2183
      2182      2180      2183      2180      2183      2184      2180      2183      2185
      2180      2183      2186      2184      2183      2185      2184      2183      2186
      2185      2183      2186      2183      2186      2187      2183      2186      2188
      2183      2186      2189      2187      2186      2188      2187      2186      2189
      2188      2186      2189      2186      2189      2190      2186      2189      2191
      2186      2189      2192      2190      2189      2191      2190      2189      2192
      2191      2189      2192      2189      2192      2193      2189      2192      2194
      2189      2192      2195      2193      2192      2194      2193      2192      2195
      2194      2192      2195      2197      2196      2198      2197      2196      2199
      2197      2196      2200      2198      2196      2199      2198      2196      2200
      2199      2196      2200      2196      2200      2201      2196      2200      2202
      2196      2200      2203      2201      2200      2202      2201      2200      2203
      2202      2200      2203      2200      2203      2204      2200      2203      2205
      2200      2203      2210      2204      2203      2205      2204      2203      2210
      2205      2203      2210      2207      2206      2208      2207      2206      2209
      2207      2206      2210      2208      2206      2209      2208      2206      2210
      2209      2206      2210      2206      2209      2211      2203      2210      2206
      2209      2211      2212      2209      2211      2213      2209      2211      2214
      2212      2211      2213      2212      2211      2214      2213      2211      2214
      2211      2214      2215      2211      2214      2216      2211      2214      2222
      2215      2214      2216      2215      2214      2222      2216      2214      2222
      2214      2216      2217      2216      2217      2218      2216      2217      2219
      2218      2217      2219      2217      2219      2220      2217      2219      2221
      2217      2219      2231      2220      2219      2221      2220      2219      2231
      2221      2219      2231      2214      2222      2223      2214      2222      2224
      2214      2222      2225      2223      2222      2224      2223      2222      2225
      2224      2222      2225      2222      2225      2226      2225      2226      2227
      2225      2226      2228      2227      2226      2228      2226      2228      2229
      2226      2228      2230      2226      2228      2272      2229      2228      2230
      2229      2228      2272      2230      2228      2272      2219      2231      2232
      2219      2231      2233      2219      2231      2234      2232      2231      2233
      2232      2231      2234      2233      2231      2234      2231      2234      2235
      2231      2234      2236      2231      2234      2237      2235      2234      2236
      2235      2234      2237      2236      2234      2237      2234      2237      2238
      2234      2237      2239      2234      2237      2240      2238      2237      2239
      2238      2237      2240      2239      2237      2240      2237      2240      2241
      2237      2240      2242      2237      2240      2243      2241      2240      2242
      2241      2240      2243      2242      2240      2243      2240      2243      2244
      2240      2243      2245      2240      2243      2246      2244      2243      2245
      2244      2243      2246      2245      2243      2246      2243      2246      2247
      2243      2246      2248      2243      2246      2249      2247      2246      2248
      2247      2246      2249      2248      2246      2249      2246      2249      2250
      2246      2249      2251      2250      2249      2251      2249      2251      2252
      2249      2251      2253      2252      2251      2253      2251      2253      2254
      2251      2253      2255      2251      2253      2256      2254      2253      2255
      2254      2253      2256      2255      2253      2256      2253      2256      2257
      2253      2256      2258      2253      2256      2259      2257      2256      2258
      2257      2256      2259      2258      2256      2259      2256      2259      2260
      2256      2259      2261      2256      2259      2262      2260      2259      2261
      2260      2259      2262      2261      2259      2262      2259      2262      2263
      2259      2262      2264      2259      2262      2265      2263      2262      2264
      2263      2262      2265      2264      2262      2265      2262      2265      2266
      2262      2265      2267      2262      2265      2268      2266      2265      2267
      2266      2265      2268      2267      2265      2268      2265      2268      2269
      2265      2268      2270      2265      2268      2271      2269      2268      2270
      2269      2268      2271      2270      2268      2271      2228      2272      2273
      2228      2272      2274      2228      2272      2275      2273      2272      2274
      2273      2272      2275      2274      2272      2275      2272      2275      2276
      2272      2275      2277      2272      2275      2278      2276      2275      2277
      2276      2275      2278      2277      2275      2278      2275      2278      2279
      2275      2278      2280      2275      2278      2281      2279      2278      2280
      2279      2278      2281      2280      2278      2281      2278      2281      2282
      2278      2281      2283      2278      2281      2284      2282      2281      2283
      2282      2281      2284      2283      2281      2284      2281      2284      2285
      2281      2284      2286      2281      2284      2287      2285      2284      2286
      2285      2284      2287      2286      2284      2287      2284      2287      2288
      2284      2287      2289      2284      2287      2290      2288      2287      2289
      2288      2287      2290      2289      2287      2290      2287      2290      2291
      2287      2290      2292      2291      2290      2292      2290      2292      2293
      2290      2292      2294      2293      2292      2294      2292      2294      2295
      2292      2294      2296      2292      2294      2297      2295      2294      2296
      2295      2294      2297      2296      2294      2297      2294      2297      2298
      2294      2297      2299      2294      2297      2300      2298      2297      2299
      2298      2297      2300      2299      2297      2300      2297      2300      2301
      2297      2300      2302      2297      2300      2303      2301      2300      2302
      2301      2300      2303      2302      2300      2303      2300      2303      2304
      2300      2303      2305      2300      2303      2306      2304      2303      2305
      2304      2303      2306      2305      2303      2306      2303      2306      2307
      2303      2306      2308      2303      2306      2309      2307      2306      2308
      2307      2306      2309      2308      2306      2309      2306      2309      2310
      2306      2309      2311      2306      2309      2312      2310      2309      2311
      2310      2309      2312      2311      2309      2312      2309      2312      2313
      2309      2312      2314      2309      2312      2315      2313      2312      2314
      2313      2312      2315      2314      2312      2315      2312      2315      2316
      2312      2315      2317      2312      2315      2318      2316      2315      2317
      2316      2315      2318      2317      2315      2318      2320      2319      2321
      2320      2319      2322      2320      2319      2323      2321      2319      2322
      2321      2319      2323      2322      2319      2323      2319      2323      2324
      2319      2323      2325      2319      2323      2326      2324      2323      2325
      2324      2323      2326      2325      2323      2326      2323      2326      2327
      2323      2326      2328      2323      2326      2333      2327      2326      2328
      2327      2326      2333      2328      2326      2333      2330      2329      2331
      2330      2329      2332      2330      2329      2333      2331      2329      2332
      2331      2329      2333      2332      2329      2333      2329      2332      2334
      2326      2333      2329      2332      2334      2335      2332      2334      2336
      2332      2334      2337      2335      2334      2336      2335      2334      2337
      2336      2334      2337      2334      2337      2338      2334      2337      2339
      2334      2337      2345      2338      2337      2339      2338      2337      2345
      2339      2337      2345      2337      2339      2340      2339      2340      2341
      2339      2340      2342      2341      2340      2342      2340      2342      2343
      2340      2342      2344      2340      2342      2354      2343      2342      2344
      2343      2342      2354      2344      2342      2354      2337      2345      2346
      2337      2345      2347      2337      2345      2348      2346      2345      2347
      2346      2345      2348      2347      2345      2348      2345      2348      2349
      2348      2349      2350      2348      2349      2351      2350      2349      2351
      2349      2351      2352      2349      2351      2353      2349      2351      2401
      2352      2351      2353      2352      2351      2401      2353      2351      2401
      2342      2354      2355      2342      2354      2356      2342      2354      2357
      2355      2354      2356      2355      2354      2357      2356      2354      2357
      2354      2357      2358      2354      2357      2359      2354      2357      2360
      2358      2357      2359      2358      2357      2360      2359      2357      2360
      2357      2360      2361      2357      2360      2362      2357      2360      2363
      2361      2360      2362      2361      2360      2363      2362      2360      2363
      2360      2363      2364      2360      2363      2365      2360      2363      2366
      2364      2363      2365      2364      2363      2366      2365      2363      2366
      2363      2366      2367      2363      2366      2368      2363      2366      2369
      2367      2366      2368      2367      2366      2369      2368      2366      2369
      2366      2369      2370      2366      2369      2371      2366      2369      2372
      2370      2369      2371      2370      2369      2372      2371      2369      2372
      2369      2372      2373      2369      2372      2374      2373      2372      2374
      2372      2374      2375      2372      2374      2376      2375      2374      2376
      2374      2376      2377      2374      2376      2378      2374      2376      2379
      2377      2376      2378      2377      2376      2379      2378      2376      2379
      2376      2379      2380      2376      2379      2381      2376      2379      2382
      2380      2379      2381      2380      2379      2382      2381      2379      2382
      2379      2382      2383      2379      2382      2384      2379      2382      2385
      2383      2382      2384      2383      2382      2385      2384      2382      2385
      2382      2385      2386      2382      2385      2387      2382      2385      2388
      2386      2385      2387      2386      2385      2388      2387      2385      2388
      2385      2388      2389      2385      2388      2390      2385      2388      2391
      2389      2388      2390      2389      2388      2391      2390      2388      2391
      2388      2391      2392      2388      2391      2393      2388      2391      2394
      2392      2391      2393      2392      2391      2394      2393      2391      2394
      2391      2394      2395      2391      2394      2396      2391      2394      2397
      2395      2394      2396      2395      2394      2397      2396      2394      2397
      2394      2397      2398      2394      2397      2399      2394      2397      2400
      2398      2397      2399      2398      2397      2400      2399      2397      2400
      2351      2401      2402      2351      2401      2403      2351      2401      2404
      2402      2401      2403      2402      2401      2404      2403      2401      2404
      2401      2404      2405      2401      2404      2406      2401      2404      2407
      2405      2404      2406      2405      2404      2407      2406      2404      2407
      2404      2407      2408      2404      2407      2409      2404      2407      2410
      2408      2407      2409      2408      2407      2410      2409      2407      2410
      2407      2410      2411      2407      2410      2412      2407      2410      2413
      2411      2410      2412      2411      2410      2413      2412      2410      2413
      2410      2413      2414      2410      2413      2415      2410      2413      2416
      2414      2413      2415      2414      2413      2416      2415      2413      2416
      2413      2416      2417      2413      2416      2418      2413      2416      2419
      2417      2416      2418      2417      2416      2419      2418      2416      2419
      2416      2419      2420      2416      2419      2421      2416      2419      2422
      2420      2419      2421      2420      2419      2422      2421      2419      2422
      2419      2422      2423      2419      2422      2424      2419      2422      2425
      2423      2422      2424      2423      2422      2425      2424      2422      2425
      2422      2425      2426      2422      2425      2427      2422      2425      2428
      2426      2425      2427      2426      2425      2428      2427      2425      2428
      2425      2428      2429      2425      2428      2430      2425      2428      2431
      2429      2428      2430      2429      2428      2431      2430      2428      2431
      2428      2431      2432      2428      2431      2433      2428      2431      2434
      2432      2431      2433      2432      2431      2434      2433      2431      2434
      2431      2434      2435      2431      2434      2436      2431      2434      2437
      2435      2434      2436      2435      2434      2437      2436      2434      2437
      2434      2437      2438      2434      2437      2439      2434      2437      2440
      2438      2437      2439      2438      2437      2440      2439      2437      2440
      2437      2440      2441      2437      2440      2442      2437      2440      2443
      2441      2440      2442      2441      2440      2443      2442      2440      2443
      2445      2444      2446      2445      2444      2447      2445      2444      2448
      2446      2444      2447      2446      2444      2448      2447      2444      2448
      2444      2448      2449      2444      2448      2450      2444      2448      2451
      2449      2448      2450      2449      2448      2451      2450      2448      2451
      2448      2451      2452      2448      2451      2453      2448      2451      2458
      2452      2451      2453      2452      2451      2458      2453      2451      2458
      2455      2454      2456      2455      2454      2457      2455      2454      2458
      2456      2454      2457      2456      2454      2458      2457      2454      2458
      2454      2457      2459      2451      2458      2454      2457      2459      2460
      2457      2459      2461      2457      2459      2462      2460      2459      2461
      2460      2459      2462      2461      2459      2462      2459      2462      2463
      2459      2462      2464      2459      2462      2470      2463      2462      2464
      2463      2462      2470      2464      2462      2470      2462      2464      2465
      2464      2465      2466      2464      2465      2467      2466      2465      2467
      2465      2467      2468      2465      2467      2469      2465      2467      2479
      2468      2467      2469      2468      2467      2479      2469      2467      2479
      2462      2470      2471      2462      2470      2472      2462      2470      2473
      2471      2470      2472      2471      2470      2473      2472      2470      2473
      2470      2473      2474      2473      2474      2475      2473      2474      2476
      2475      2474      2476      2474      2476      2477      2474      2476      2478
      2474      2476      2520      2477      2476      2478      2477      2476      2520
      2478      2476      2520      2467      2479      2480      2467      2479      2481
      2467      2479      2482      2480      2479      2481      2480      2479      2482
      2481      2479      2482      2479      2482      2483      2479      2482      2484
      2479      2482      2485      2483      2482      2484      2483      2482      2485
      2484      2482      2485      2482      2485      2486      2482      2485      2487
      2482      2485      2488      2486      2485      2487      2486      2485      2488
      2487      2485      2488      2485      2488      2489      2485      2488      2490
      2485      2488      2491      2489      2488      2490      2489      2488      2491
      2490      2488      2491      2488      2491      2492      2488      2491      2493
      2488      2491      2494      2492      2491      2493      2492      2491      2494
      2493      2491      2494      2491      2494      2495      2491      2494      2496
      2491      2494      2497      2495      2494      2496      2495      2494      2497
      2496      2494      2497      2494      2497      2498      2494      2497      2499
      2498      2497      2499      2497      2499      2500      2497      2499      2501
      2500      2499      2501      2499      2501      2502      2499      2501      2503
      2499      2501      2504      2502      2501      2503      2502      2501      2504
      2503      2501      2504      2501      2504      2505      2501      2504      2506
      2501      2504      2507      2505      2504      2506      2505      2504      2507
      2506      2504      2507      2504      2507      2508      2504      2507      2509
      2504      2507      2510      2508      2507      2509      2508      2507      2510
      2509      2507      2510      2507      2510      2511      2507      2510      2512
      2507      2510      2513      2511      2510      2512      2511      2510      2513
      2512      2510      2513      2510      2513      2514      2510      2513      2515
      2510      2513      2516      2514      2513      2515      2514      2513      2516
      2515      2513      2516      2513      2516      2517      2513      2516      2518
      2513      2516      2519      2517      2516      2518      2517      2516      2519
      2518      2516      2519      2476      2520      2521      2476      2520      2522
      2476      2520      2523      2521      2520      2522      2521      2520      2523
      2522      2520      2523      2520      2523      2524      2520      2523      2525
      2520      2523      2526      2524      2523      2525      2524      2523      2526
      2525      2523      2526      2523      2526      2527      2523      2526      2528
      2523      2526      2529      2527      2526      2528      2527      2526      2529
      2528      2526      2529      2526      2529      2530      2526      2529      2531
      2526      2529      2532      2530      2529      2531      2530      2529      2532
      2531      2529      2532      2529      2532      2533      2529      2532      2534
      2529      2532      2535      2533      2532      2534      2533      2532      2535
      2534      2532      2535      2532      2535      2536      2532      2535      2537
      2532      2535      2538      2536      2535      2537      2536      2535      2538
      2537      2535      2538      2535      2538      2539      2535      2538      2540
      2539      2538      2540      2538      2540      2541      2538      2540      2542
      2541      2540      2542      2540      2542      2543      2540      2542      2544
      2540      2542      2545      2543      2542      2544      2543      2542      2545
      2544      2542      2545      2542      2545      2546      2542      2545      2547
      2542      2545      2548      2546      2545      2547      2546      2545      2548
      2547      2545      2548      2545      2548      2549      2545      2548      2550
      2545      2548      2551      2549      2548      2550      2549      2548      2551
      2550      2548      2551      2548      2551      2552      2548      2551      2553
      2548      2551      2554      2552      2551      2553      2552      2551      2554
      2553      2551      2554      2551      2554      2555      2551      2554      2556
      2551      2554      2557      2555      2554      2556      2555      2554      2557
      2556      2554      2557      2554      2557      2558      2554      2557      2559
      2554      2557      2560      2558      2557      2559      2558      2557      2560
      2559      2557      2560      2557      2560      2561      2557      2560      2562
      2557      2560      2563      2561      2560      2562      2561      2560      2563
      2562      2560      2563      2560      2563      2564      2560      2563      2565
      2560      2563      2566      2564      2563      2565      2564      2563      2566
      2565      2563      2566      2568      2567      2569      2568      2567      2570
      2568      2567      2571      2569      2567      2570      2569      2567      2571
      2570      2567      2571      2567      2571      2572      2567      2571      2573
      2567      2571      2574      2572      2571      2573      2572      2571      2574
      2573      2571      2574      2571      2574      2575      2571      2574      2576
      2571      2574      2581      2575      2574      2576      2575      2574      2581
      2576      2574      2581      2578      2577      2579      2578      2577      2580
      2578      2577      2581      2579      2577      2580      2579      2577      2581
      2580      2577      2581      2577      2580      2582      2574      2581      2577
      2580      2582      2583      2580      2582      2584      2580      2582      2585
      2583      2582      2584      2583      2582      2585      2584      2582      2585
      2582      2585      2586      2582      2585      2587      2582      2585      2593
      2586      2585      2587      2586      2585      2593      2587      2585      2593
      2585      2587      2588      2587      2588      2589      2587      2588      2590
      2589      2588      2590      2588      2590      2591      2588      2590      2592
      2588      2590      2602      2591      2590      2592      2591      2590      2602
      2592      2590      2602      2585      2593      2594      2585      2593      2595
      2585      2593      2596      2594      2593      2595      2594      2593      2596
      2595      2593      2596      2593      2596      2597      2596      2597      2598
      2596      2597      2599      2598      2597      2599      2597      2599      2600
      2597      2599      2601      2597      2599      2646      2600      2599      2601
      2600      2599      2646      2601      2599      2646      2590      2602      2603
      2590      2602      2604      2590      2602      2605      2603      2602      2604
      2603      2602      2605      2604      2602      2605      2602      2605      2606
      2602      2605      2607      2602      2605      2608      2606      2605      2607
      2606      2605      2608      2607      2605      2608      2605      2608      2609
      2605      2608      2610      2605      2608      2611      2609      2608      2610
      2609      2608      2611      2610      2608      2611      2608      2611      2612
      2608      2611      2613      2608      2611      2614      2612      2611      2613
      2612      2611      2614      2613      2611      2614      2611      2614      2615
      2611      2614      2616      2611      2614      2617      2615      2614      2616
      2615      2614      2617      2616      2614      2617      2614      2617      2618
      2614      2617      2619      2614      2617      2620      2618      2617      2619
      2618      2617      2620      2619      2617      2620      2617      2620      2621
      2617      2620      2622      2617      2620      2625      2621      2620      2622
      2621      2620      2625      2622      2620      2625      2620      2622      2623
      2620      2622      2624      2620      2622      2625      2623      2622      2624
      2623      2622      2625      2624      2622      2625      2620      2625      2622
      2620      2625      2626      2620      2625      2627      2622      2625      2626
      2622      2625      2627      2626      2625      2627      2625      2627      2628
      2625      2627      2629      2625      2627      2630      2628      2627      2629
      2628      2627      2630      2629      2627      2630      2627      2630      2631
      2627      2630      2632      2627      2630      2633      2631      2630      2632
      2631      2630      2633      2632      2630      2633      2630      2633      2634
      2630      2633      2635      2630      2633      2636      2634      2633      2635
      2634      2633      2636      2635      2633      2636      2633      2636      2637
      2633      2636      2638      2633      2636      2639      2637      2636      2638
      2637      2636      2639      2638      2636      2639      2636      2639      2640
      2636      2639      2641      2636      2639      2642      2640      2639      2641
      2640      2639      2642      2641      2639      2642      2639      2642      2643
      2639      2642      2644      2639      2642      2645      2643      2642      2644
      2643      2642      2645      2644      2642      2645      2599      2646      2647
      2599      2646      2648      2599      2646      2649      2647      2646      2648
      2647      2646      2649      2648      2646      2649      2646      2649      2650
      2646      2649      2651      2646      2649      2652      2650      2649      2651
      2650      2649      2652      2651      2649      2652      2649      2652      2653
      2649      2652      2654      2649      2652      2655      2653      2652      2654
      2653      2652      2655      2654      2652      2655      2652      2655      2656
      2652      2655      2657      2652      2655      2658      2656      2655      2657
      2656      2655      2658      2657      2655      2658      2655      2658      2659
      2655      2658      2660      2655      2658      2661      2659      2658      2660
      2659      2658      2661      2660      2658      2661      2658      2661      2662
      2658      2661      2663      2658      2661      2664      2662      2661      2663
      2662      2661      2664      2663      2661      2664      2661      2664      2665
      2661      2664      2666      2661      2664      2667      2665      2664      2666
      2665      2664      2667      2666      2664      2667      2664      2667      2668
      2664      2667      2669      2664      2667      2670      2668      2667      2669
      2668      2667      2670      2669      2667      2670      2667      2670      2671
      2667      2670      2672      2667      2670      2673      2671      2670      2672
      2671      2670      2673      2672      2670      2673      2670      2673      2674
      2670      2673      2675      2670      2673      2676      2674      2673      2675
      2674      2673      2676      2675      2673      2676      2673      2676      2677
      2673      2676      2678      2673      2676      2679      2677      2676      2678
      2677      2676      2679      2678      2676      2679      2676      2679      2680
      2676      2679      2681      2676      2679      2682      2680      2679      2681
      2680      2679      2682      2681      2679      2682      2679      2682      2683
      2679      2682      2684      2679      2682      2685      2683      2682      2684
      2683      2682      2685      2684      2682      2685      2682      2685      2686
      2682      2685      2687      2682      2685      2688      2686      2685      2687
      2686      2685      2688      2687      2685      2688      2690      2689      2691
      2690      2689      2692      2690      2689      2694      2691      2689      2692
      2691      2689      2694      2692      2689      2694      2689      2692      2693
      2689      2694      2695      2689      2694      2696      2689      2694      2698
      2695      2694      2696      2695      2694      2698      2696      2694      2698
      2694      2696      2697      2694      2698      2699      2694      2698      2700
      2694      2698      2705      2699      2698      2700      2699      2698      2705
      2700      2698      2705      2702      2701      2703      2702      2701      2704
      2702      2701      2705      2703      2701      2704      2703      2701      2705
      2704      2701      2705      2701      2704      2706      2698      2705      2701
      2704      2706      2707      2704      2706      2708      2704      2706      2709
      2707      2706      2708      2707      2706      2709      2708      2706      2709
      2706      2709      2710      2706      2709      2711      2706      2709      2717
      2710      2709      2711      2710      2709      2717      2711      2709      2717
      2709      2711      2712      2711      2712      2713      2711      2712      2714
      2713      2712      2714      2712      2714      2715      2712      2714      2716
      2712      2714      2726      2715      2714      2716      2715      2714      2726
      2716      2714      2726      2709      2717      2718      2709      2717      2719
      2709      2717      2720      2718      2717      2719      2718      2717      2720
      2719      2717      2720      2717      2720      2721      2720      2721      2722
      2720      2721      2723      2722      2721      2723      2721      2723      2724
      2721      2723      2725      2721      2723      2767      2724      2723      2725
      2724      2723      2767      2725      2723      2767      2714      2726      2727
      2714      2726      2728      2714      2726      2729      2727      2726      2728
      2727      2726      2729      2728      2726      2729      2726      2729      2730
      2726      2729      2731      2726      2729      2732      2730      2729      2731
      2730      2729      2732      2731      2729      2732      2729      2732      2733
      2729      2732      2734      2729      2732      2735      2733      2732      2734
      2733      2732      2735      2734      2732      2735      2732      2735      2736
      2732      2735      2737      2732      2735      2738      2736      2735      2737
      2736      2735      2738      2737      2735      2738      2735      2738      2739
      2735      2738      2740      2735      2738      2741      2739      2738      2740
      2739      2738      2741      2740      2738      2741      2738      2741      2742
      2738      2741      2743      2738      2741      2744      2742      2741      2743
      2742      2741      2744      2743      2741      2744      2741      2744      2745
      2741      2744      2746      2745      2744      2746      2744      2746      2747
      2744      2746      2748      2747      2746      2748      2746      2748      2749
      2746      2748      2750      2746      2748      2751      2749      2748      2750
      2749      2748      2751      2750      2748      2751      2748      2751      2752
      2748      2751      2753      2748      2751      2754      2752      2751      2753
      2752      2751      2754      2753      2751      2754      2751      2754      2755
      2751      2754      2756      2751      2754      2757      2755      2754      2756
      2755      2754      2757      2756      2754      2757      2754      2757      2758
      2754      2757      2759      2754      2757      2760      2758      2757      2759
      2758      2757      2760      2759      2757      2760      2757      2760      2761
      2757      2760      2762      2757      2760      2763      2761      2760      2762
      2761      2760      2763      2762      2760      2763      2760      2763      2764
      2760      2763      2765      2760      2763      2766      2764      2763      2765
      2764      2763      2766      2765      2763      2766      2723      2767      2768
      2723      2767      2769      2723      2767      2770      2768      2767      2769
      2768      2767      2770      2769      2767      2770      2767      2770      2771
      2767      2770      2772      2767      2770      2773      2771      2770      2772
      2771      2770      2773      2772      2770      2773      2770      2773      2774
      2770      2773      2775      2770      2773      2776      2774      2773      2775
      2774      2773      2776      2775      2773      2776      2773      2776      2777
      2773      2776      2778      2773      2776      2779      2777      2776      2778
      2777      2776      2779      2778      2776      2779      2776      2779      2780
      2776      2779      2781      2776      2779      2782      2780      2779      2781
      2780      2779      2782      2781      2779      2782      2779      2782      2783
      2779      2782      2784      2779      2782      2785      2783      2782      2784
      2783      2782      2785      2784      2782      2785      2782      2785      2786
      2782      2785      2787      2782      2785      2788      2786      2785      2787
      2786      2785      2788      2787      2785      2788      2785      2788      2789
      2785      2788      2790      2785      2788      2791      2789      2788      2790
      2789      2788      2791      2790      2788      2791      2788      2791      2792
      2788      2791      2793      2788      2791      2794      2792      2791      2793
      2792      2791      2794      2793      2791      2794      2791      2794      2795
      2791      2794      2796      2791      2794      2797      2795      2794      2796
      2795      2794      2797      2796      2794      2797      2794      2797      2798
      2794      2797      2799      2794      2797      2800      2798      2797      2799
      2798      2797      2800      2799      2797      2800      2797      2800      2801
      2797      2800      2802      2797      2800      2803      2801      2800      2802
      2801      2800      2803      2802      2800      2803      2800      2803      2804
      2800      2803      2805      2800      2803      2806      2804      2803      2805
      2804      2803      2806      2805      2803      2806      2803      2806      2807
      2803      2806      2808      2803      2806      2809      2807      2806      2808
      2807      2806      2809      2808      2806      2809      2811      2810      2812
      2811      2810      2813      2811      2810      2814      2812      2810      2813
      2812      2810      2814      2813      2810      2814      2810      2814      2815
      2810      2814      2816      2810      2814      2817      2815      2814      2816
      2815      2814      2817      2816      2814      2817      2814      2817      2818
      2814      2817      2819      2814      2817      2824      2818      2817      2819
      2818      2817      2824      2819      2817      2824      2821      2820      2822
      2821      2820      2823      2821      2820      2824      2822      2820      2823
      2822      2820      2824      2823      2820      2824      2820      2823      2825
      2817      2824      2820      2823      2825      2826      2823      2825      2827
      2823      2825      2828      2826      2825      2827      2826      2825      2828
      2827      2825      2828      2825      2828      2829      2825      2828      2830
      2825      2828      2836      2829      2828      2830      2829      2828      2836
      2830      2828      2836      2828      2830      2831      2830      2831      2832
      2830      2831      2833      2832      2831      2833      2831      2833      2834
      2831      2833      2835      2831      2833      2845      2834      2833      2835
      2834      2833      2845      2835      2833      2845      2828      2836      2837
      2828      2836      2838      2828      2836      2839      2837      2836      2838
      2837      2836      2839      2838      2836      2839      2836      2839      2840
      2839      2840      2841      2839      2840      2842      2841      2840      2842
      2840      2842      2843      2840      2842      2844      2840      2842      2889
      2843      2842      2844      2843      2842      2889      2844      2842      2889
      2833      2845      2846      2833      2845      2847      2833      2845      2848
      2846      2845      2847      2846      2845      2848      2847      2845      2848
      2845      2848      2849      2845      2848      2850      2845      2848      2851
      2849      2848      2850      2849      2848      2851      2850      2848      2851
      2848      2851      2852      2848      2851      2853      2848      2851      2854
      2852      2851      2853      2852      2851      2854      2853      2851      2854
      2851      2854      2855      2851      2854      2856      2851      2854      2857
      2855      2854      2856      2855      2854      2857      2856      2854      2857
      2854      2857      2858      2854      2857      2859      2854      2857      2860
      2858      2857      2859      2858      2857      2860      2859      2857      2860
      2857      2860      2861      2857      2860      2862      2857      2860      2863
      2861      2860      2862      2861      2860      2863      2862      2860      2863
      2860      2863      2864      2860      2863      2865      2860      2863      2868
      2864      2863      2865      2864      2863      2868      2865      2863      2868
      2863      2865      2866      2863      2865      2867      2863      2865      2868
      2866      2865      2867      2866      2865      2868      2867      2865      2868
      2863      2868      2865      2863      2868      2869      2863      2868      2870
      2865      2868      2869      2865      2868      2870      2869      2868      2870
      2868      2870      2871      2868      2870      2872      2868      2870      2873
      2871      2870      2872      2871      2870      2873      2872      2870      2873
      2870      2873      2874      2870      2873      2875      2870      2873      2876
      2874      2873      2875      2874      2873      2876      2875      2873      2876
      2873      2876      2877      2873      2876      2878      2873      2876      2879
      2877      2876      2878      2877      2876      2879      2878      2876      2879
      2876      2879      2880      2876      2879      2881      2876      2879      2882
      2880      2879      2881      2880      2879      2882      2881      2879      2882
      2879      2882      2883      2879      2882      2884      2879      2882      2885
      2883      2882      2884      2883      2882      2885      2884      2882      2885
      2882      2885      2886      2882      2885      2887      2882      2885      2888
      2886      2885      2887      2886      2885      2888      2887      2885      2888
      2842      2889      2890      2842      2889      2891      2842      2889      2892
      2890      2889      2891      2890      2889      2892      2891      2889      2892
      2889      2892      2893      2889      2892      2894      2889      2892      2895
      2893      2892      2894      2893      2892      2895      2894      2892      2895
      2892      2895      2896      2892      2895      2897      2892      2895      2898
      2896      2895      2897      2896      2895      2898      2897      2895      2898
      2895      2898      2899      2895      2898      2900      2895      2898      2901
      2899      2898      2900      2899      2898      2901      2900      2898      2901
      2898      2901      2902      2898      2901      2903      2898      2901      2904
      2902      2901      2903      2902      2901      2904      2903      2901      2904
      2901      2904      2905      2901      2904      2906      2901      2904      2907
      2905      2904      2906      2905      2904      2907      2906      2904      2907
      2904      2907      2908      2904      2907      2909      2904      2907      2910
      2908      2907      2909      2908      2907      2910      2909      2907      2910
      2907      2910      2911      2907      2910      2912      2907      2910      2913
      2911      2910      2912      2911      2910      2913      2912      2910      2913
      2910      2913      2914      2910      2913      2915      2910      2913      2916
      2914      2913      2915      2914      2913      2916      2915      2913      2916
      2913      2916      2917      2913      2916      2918      2913      2916      2919
      2917      2916      2918      2917      2916      2919      2918      2916      2919
      2916      2919      2920      2916      2919      2921      2916      2919      2922
      2920      2919      2921      2920      2919      2922      2921      2919      2922
      2919      2922      2923      2919      2922      2924      2919      2922      2925
      2923      2922      2924      2923      2922      2925      2924      2922      2925
      2922      2925      2926      2922      2925      2927      2922      2925      2928
      2926      2925      2927      2926      2925      2928      2927      2925      2928
      2925      2928      2929      2925      2928      2930      2925      2928      2931
      2929      2928      2930      2929      2928      2931      2930      2928      2931
      2933      2932      2934      2933      2932      2935      2933      2932      2936
      2934      2932      2935      2934      2932      2936      2935      2932      2936
      2932      2936      2937      2932      2936      2938      2932      2936      2939
      2937      2936      2938      2937      2936      2939      2938      2936      2939
      2936      2939      2940      2936      2939      2941      2936      2939      2946
      2940      2939      2941      2940      2939      2946      2941      2939      2946
      2943      2942      2944      2943      2942      2945      2943      2942      2946
      2944      2942      2945      2944      2942      2946      2945      2942      2946
      2942      2945      2947      2939      2946      2942      2945      2947      2948
      2945      2947      2949      2945      2947      2950      2948      2947      2949
      2948      2947      2950      2949      2947      2950      2947      2950      2951
      2947      2950      2952      2947      2950      2958      2951      2950      2952
      2951      2950      2958      2952      2950      2958      2950      2952      2953
      2952      2953      2954      2952      2953      2955      2954      2953      2955
      2953      2955      2956      2953      2955      2957      2953      2955      2967
      2956      2955      2957      2956      2955      2967      2957      2955      2967
      2950      2958      2959      2950      2958      2960      2950      2958      2961
      2959      2958      2960      2959      2958      2961      2960      2958      2961
      2958      2961      2962      2961      2962      2963      2961      2962      2964
      2963      2962      2964      2962      2964      2965      2962      2964      2966
      2962      2964      3011      2965      2964      2966      2965      2964      3011
      2966      2964      3011      2955      2967      2968      2955      2967      2969
      2955      2967      2970      2968      2967      2969      2968      2967      2970
      2969      2967      2970      2967      2970      2971      2967      2970      2972
      2967      2970      2973      2971      2970      2972      2971      2970      2973
      2972      2970      2973      2970      2973      2974      2970      2973      2975
      2970      2973      2976      2974      2973      2975      2974      2973      2976
      2975      2973      2976      2973      2976      2977      2973      2976      2978
      2973      2976      2979      2977      2976      2978      2977      2976      2979
      2978      2976      2979      2976      2979      2980      2976      2979      2981
      2976      2979      2982      2980      2979      2981      2980      2979      2982
      2981      2979      2982      2979      2982      2983      2979      2982      2984
      2979      2982      2985      2983      2982      2984      2983      2982      2985
      2984      2982      2985      2982      2985      2986      2982      2985      2987
      2982      2985      2990      2986      2985      2987      2986      2985      2990
      2987      2985      2990      2985      2987      2988      2985      2987      2989
      2985      2987      2990      2988      2987      2989      2988      2987      2990
      2989      2987      2990      2985      2990      2987      2985      2990      2991
      2985      2990      2992      2987      2990      2991      2987      2990      2992
      2991      2990      2992      2990      2992      2993      2990      2992      2994
      2990      2992      2995      2993      2992      2994      2993      2992      2995
      2994      2992      2995      2992      2995      2996      2992      2995      2997
      2992      2995      2998      2996      2995      2997      2996      2995      2998
      2997      2995      2998      2995      2998      2999      2995      2998      3000
      2995      2998      3001      2999      2998      3000      2999      2998      3001
      3000      2998      3001      2998      3001      3002      2998      3001      3003
      2998      3001      3004      3002      3001      3003      3002      3001      3004
      3003      3001      3004      3001      3004      3005      3001      3004      3006
      3001      3004      3007      3005      3004      3006      3005      3004      3007
      3006      3004      3007      3004      3007      3008      3004      3007      3009
      3004      3007      3010      3008      3007      3009      3008      3007      3010
      3009      3007      3010      2964      3011      3012      2964      3011      3013
      2964      3011      3014      3012      3011      3013      3012      3011      3014
      3013      3011      3014      3011      3014      3015      3011      3014      3016
      3011      3014      3017      3015      3014      3016      3015      3014      3017
      3016      3014      3017      3014      3017      3018      3014      3017      3019
      3014      3017      3020      3018      3017      3019      3018      3017      3020
      3019      3017      3020      3017      3020      3021      3017      3020      3022
      3017      3020      3023      3021      3020      3022      3021      3020      3023
      3022      3020      3023      3020      3023      3024      3020      3023      3025
      3020      3023      3026      3024      3023      3025      3024      3023      3026
      3025      3023      3026      3023      3026      3027      3023      3026      3028
      3023      3026      3029      3027      3026      3028      3027      3026      3029
      3028      3026      3029      3026      3029      3030      3026      3029      3031
      3026      3029      3032      3030      3029      3031      3030      3029      3032
      3031      3029      3032      3029      3032      3033      3029      3032      3034
      3029      3032      3035      3033      3032      3034      3033      3032      3035
      3034      3032      3035      3032      3035      3036      3032      3035      3037
      3032      3035      3038      3036      3035      3037      3036      3035      3038
      3037      3035      3038      3035      3038      3039      3035      3038      3040
      3035      3038      3041      3039      3038      3040      3039      3038      3041
      3040      3038      3041      3038      3041      3042      3038      3041      3043
      3038      3041      3044      3042      3041      3043      3042      3041      3044
      3043      3041      3044      3041      3044      3045      3041      3044      3046
      3041      3044      3047      3045      3044      3046      3045      3044      3047
      3046      3044      3047      3044      3047      3048      3044      3047      3049
      3044      3047      3050      3048      3047      3049      3048      3047      3050
      3049      3047      3050      3047      3050      3051      3047      3050      3052
      3047      3050      3053      3051      3050      3052      3051      3050      3053
      3052      3050      3053      3055      3054      3056      3055      3054      3057
      3055      3054      3058      3056      3054      3057      3056      3054      3058
      3057      3054      3058      3054      3058      3059      3054      3058      3060
      3054      3058      3061      3059      3058      3060      3059      3058      3061
      3060      3058      3061      3058      3061      3062      3058      3061      3063
      3058      3061      3068      3062      3061      3063      3062      3061      3068
      3063      3061      3068      3065      3064      3066      3065      3064      3067
      3065      3064      3068      3066      3064      3067      3066      3064      3068
      3067      3064      3068      3064      3067      3069      3061      3068      3064
      3067      3069      3070      3067      3069      3071      3067      3069      3072
      3070      3069      3071      3070      3069      3072      3071      3069      3072
      3069      3072      3073      3069      3072      3074      3069      3072      3080
      3073      3072      3074      3073      3072      3080      3074      3072      3080
      3072      3074      3075      3074      3075      3076      3074      3075      3077
      3076      3075      3077      3075      3077      3078      3075      3077      3079
      3075      3077      3089      3078      3077      3079      3078      3077      3089
      3079      3077      3089      3072      3080      3081      3072      3080      3082
      3072      3080      3083      3081      3080      3082      3081      3080      3083
      3082      3080      3083      3080      3083      3084      3083      3084      3085
      3083      3084      3086      3085      3084      3086      3084      3086      3087
      3084      3086      3088      3084      3086      3133      3087      3086      3088
      3087      3086      3133      3088      3086      3133      3077      3089      3090
      3077      3089      3091      3077      3089      3092      3090      3089      3091
      3090      3089      3092      3091      3089      3092      3089      3092      3093
      3089      3092      3094      3089      3092      3095      3093      3092      3094
      3093      3092      3095      3094      3092      3095      3092      3095      3096
      3092      3095      3097      3092      3095      3098      3096      3095      3097
      3096      3095      3098      3097      3095      3098      3095      3098      3099
      3095      3098      3100      3095      3098      3101      3099      3098      3100
      3099      3098      3101      3100      3098      3101      3098      3101      3102
      3098      3101      3103      3098      3101      3104      3102      3101      3103
      3102      3101      3104      3103      3101      3104      3101      3104      3105
      3101      3104      3106      3101      3104      3107      3105      3104      3106
      3105      3104      3107      3106      3104      3107      3104      3107      3108
      3104      3107      3109      3104      3107      3112      3108      3107      3109
      3108      3107      3112      3109      3107      3112      3107      3109      3110
      3107      3109      3111      3107      3109      3112      3110      3109      3111
      3110      3109      3112      3111      3109      3112      3107      3112      3109
      3107      3112      3113      3107      3112      3114      3109      3112      3113
      3109      3112      3114      3113      3112      3114      3112      3114      3115
      3112      3114      3116      3112      3114      3117      3115      3114      3116
      3115      3114      3117      3116      3114      3117      3114      3117      3118
      3114      3117      3119      3114      3117      3120      3118      3117      3119
      3118      3117      3120      3119      3117      3120      3117      3120      3121
      3117      3120      3122      3117      3120      3123      3121      3120      3122
      3121      3120      3123      3122      3120      3123      3120      3123      3124
      3120      3123      3125      3120      3123      3126      3124      3123      3125
      3124      3123      3126      3125      3123      3126      3123      3126      3127
      3123      3126      3128      3123      3126      3129      3127      3126      3128
      3127      3126      3129      3128      3126      3129      3126      3129      3130
      3126      3129      3131      3126      3129      3132      3130      3129      3131
      3130      3129      3132      3131      3129      3132      3086      3133      3134
      3086      3133      3135      3086      3133      3136      3134      3133      3135
      3134      3133      3136      3135      3133      3136      3133      3136      3137
      3133      3136      3138      3133      3136      3139      3137      3136      3138
      3137      3136      3139      3138      3136      3139      3136      3139      3140
      3136      3139      3141      3136      3139      3142      3140      3139      3141
      3140      3139      3142      3141      3139      3142      3139      3142      3143
      3139      3142      3144      3139      3142      3145      3143      3142      3144
      3143      3142      3145      3144      3142      3145      3142      3145      3146
      3142      3145      3147      3142      3145      3148      3146      3145      3147
      3146      3145      3148      3147      3145      3148      3145      3148      3149
      3145      3148      3150      3145      3148      3151      3149      3148      3150
      3149      3148      3151      3150      3148      3151      3148      3151      3152
      3148      3151      3153      3148      3151      3154      3152      3151      3153
      3152      3151      3154      3153      3151      3154      3151      3154      3155
      3151      3154      3156      3151      3154      3157      3155      3154      3156
      3155      3154      3157      3156      3154      3157      3154      3157      3158
      3154      3157      3159      3154      3157      3160      3158      3157      3159
      3158      3157      3160      3159      3157      3160      3157      3160      3161
      3157      3160      3162      3157      3160      3163      3161      3160      3162
      3161      3160      3163      3162      3160      3163      3160      3163      3164
      3160      3163      3165      3160      3163      3166      3164      3163      3165
      3164      3163      3166      3165      3163      3166      3163      3166      3167
      3163      3166      3168      3163      3166      3169      3167      3166      3168
      3167      3166      3169      3168      3166      3169      3166      3169      3170
      3166      3169      3171      3166      3169      3172      3170      3169      3171
      3170      3169      3172      3171      3169      3172      3169      3172      3173
      3169      3172      3174      3169      3172      3175      3173      3172      3174
      3173      3172      3175      3174      3172      3175      3177      3176      3178
      3177      3176      3179      3177      3176      3180      3178      3176      3179
      3178      3176      3180      3179      3176      3180      3176      3180      3181
      3176      3180      3182      3176      3180      3183      3181      3180      3182
      3181      3180      3183      3182      3180      3183      3180      3183      3184
      3180      3183      3185      3180      3183      3190      3184      3183      3185
      3184      3183      3190      3185      3183      3190      3187      3186      3188
      3187      3186      3189      3187      3186      3190      3188      3186      3189
      3188      3186      3190      3189      3186      3190      3186      3189      3191
      3183      3190      3186      3189      3191      3192      3189      3191      3193
      3189      3191      3194      3192      3191      3193      3192      3191      3194
      3193      3191      3194      3191      3194      3195      3191      3194      3196
      3191      3194      3202      3195      3194      3196      3195      3194      3202
      3196      3194      3202      3194      3196      3197      3196      3197      3198
      3196      3197      3199      3198      3197      3199      3197      3199      3200
      3197      3199      3201      3197      3199      3211      3200      3199      3201
      3200      3199      3211      3201      3199      3211      3194      3202      3203
      3194      3202      3204      3194      3202      3205      3203      3202      3204
      3203      3202      3205      3204      3202      3205      3202      3205      3206
      3205      3206      3207      3205      3206      3208      3207      3206      3208
      3206      3208      3209      3206      3208      3210      3206      3208      3255
      3209      3208      3210      3209      3208      3255      3210      3208      3255
      3199      3211      3212      3199      3211      3213      3199      3211      3214
      3212      3211      3213      3212      3211      3214      3213      3211      3214
      3211      3214      3215      3211      3214      3216      3211      3214      3217
      3215      3214      3216      3215      3214      3217      3216      3214      3217
      3214      3217      3218      3214      3217      3219      3214      3217      3220
      3218      3217      3219      3218      3217      3220      3219      3217      3220
      3217      3220      3221      3217      3220      3222      3217      3220      3223
      3221      3220      3222      3221      3220      3223      3222      3220      3223
      3220      3223      3224      3220      3223      3225      3220      3223      3226
      3224      3223      3225      3224      3223      3226      3225      3223      3226
      3223      3226      3227      3223      3226      3228      3223      3226      3229
      3227      3226      3228      3227      3226      3229      3228      3226      3229
      3226      3229      3230      3226      3229      3231      3226      3229      3234
      3230      3229      3231      3230      3229      3234      3231      3229      3234
      3229      3231      3232      3229      3231      3233      3229      3231      3234
      3232      3231      3233      3232      3231      3234      3233      3231      3234
      3229      3234      3231      3229      3234      3235      3229      3234      3236
      3231      3234      3235      3231      3234      3236      3235      3234      3236
      3234      3236      3237      3234      3236      3238      3234      3236      3239
      3237      3236      3238      3237      3236      3239      3238      3236      3239
      3236      3239      3240      3236      3239      3241      3236      3239      3242
      3240      3239      3241      3240      3239      3242      3241      3239      3242
      3239      3242      3243      3239      3242      3244      3239      3242      3245
      3243      3242      3244      3243      3242      3245      3244      3242      3245
      3242      3245      3246      3242      3245      3247      3242      3245      3248
      3246      3245      3247      3246      3245      3248      3247      3245      3248
      3245      3248      3249      3245      3248      3250      3245      3248      3251
      3249      3248      3250      3249      3248      3251      3250      3248      3251
      3248      3251      3252      3248      3251      3253      3248      3251      3254
      3252      3251      3253      3252      3251      3254      3253      3251      3254
      3208      3255      3256      3208      3255      3257      3208      3255      3258
      3256      3255      3257      3256      3255      3258      3257      3255      3258
      3255      3258      3259      3255      3258      3260      3255      3258      3261
      3259      3258      3260      3259      3258      3261      3260      3258      3261
      3258      3261      3262      3258      3261      3263      3258      3261      3264
      3262      3261      3263      3262      3261      3264      3263      3261      3264
      3261      3264      3265      3261      3264      3266      3261      3264      3267
      3265      3264      3266      3265      3264      3267      3266      3264      3267
      3264      3267      3268      3264      3267      3269      3264      3267      3270
      3268      3267      3269      3268      3267      3270      3269      3267      3270
      3267      3270      3271      3267      3270      3272      3267      3270      3273
      3271      3270      3272      3271      3270      3273      3272      3270      3273
      3270      3273      3274      3270      3273      3275      3270      3273      3276
      3274      3273      3275      3274      3273      3276      3275      3273      3276
      3273      3276      3277      3273      3276      3278      3273      3276      3279
      3277      3276      3278      3277      3276      3279      3278      3276      3279
      3276      3279      3280      3276      3279      3281      3276      3279      3282
      3280      3279      3281      3280      3279      3282      3281      3279      3282
      3279      3282      3283      3279      3282      3284      3279      3282      3285
      3283      3282      3284      3283      3282      3285      3284      3282      3285
      3282      3285      3286      3282      3285      3287      3282      3285      3288
      3286      3285      3287      3286      3285      3288      3287      3285      3288
      3285      3288      3289      3285      3288      3290      3285      3288      3291
      3289      3288      3290      3289      3288      3291      3290      3288      3291
      3288      3291      3292      3288      3291      3293      3288      3291      3294
      3292      3291      3293      3292      3291      3294      3293      3291      3294
      3291      3294      3295      3291      3294      3296      3291      3294      3297
      3295      3294      3296      3295      3294      3297      3296      3294      3297
      3299      3298      3300      3299      3298      3301      3299      3298      3302
      3300      3298      3301      3300      3298      3302      3301      3298      3302
      3298      3302      3303      3298      3302      3304      3298      3302      3305
      3303      3302      3304      3303      3302      3305      3304      3302      3305
      3302      3305      3306      3302      3305      3307      3302      3305      3312
      3306      3305      3307      3306      3305      3312      3307      3305      3312
      3309      3308      3310      3309      3308      3311      3309      3308      3312
      3310      3308      3311      3310      3308      3312      3311      3308      3312
      3308      3311      3313      3305      3312      3308      3311      3313      3314
      3311      3313      3315      3311      3313      3316      3314      3313      3315
      3314      3313      3316      3315      3313      3316      3313      3316      3317
      3313      3316      3318      3313      3316      3324      3317      3316      3318
      3317      3316      3324      3318      3316      3324      3316      3318      3319
      3318      3319      3320      3318      3319      3321      3320      3319      3321
      3319      3321      3322      3319      3321      3323      3319      3321      3333
      3322      3321      3323      3322      3321      3333      3323      3321      3333
      3316      3324      3325      3316      3324      3326      3316      3324      3327
      3325      3324      3326      3325      3324      3327      3326      3324      3327
      3324      3327      3328      3327      3328      3329      3327      3328      3330
      3329      3328      3330      3328      3330      3331      3328      3330      3332
      3328      3330      3377      3331      3330      3332      3331      3330      3377
      3332      3330      3377      3321      3333      3334      3321      3333      3335
      3321      3333      3336      3334      3333      3335      3334      3333      3336
      3335      3333      3336      3333      3336      3337      3333      3336      3338
      3333      3336      3339      3337      3336      3338      3337      3336      3339
      3338      3336      3339      3336      3339      3340      3336      3339      3341
      3336      3339      3342      3340      3339      3341      3340      3339      3342
      3341      3339      3342      3339      3342      3343      3339      3342      3344
      3339      3342      3345      3343      3342      3344      3343      3342      3345
      3344      3342      3345      3342      3345      3346      3342      3345      3347
      3342      3345      3348      3346      3345      3347      3346      3345      3348
      3347      3345      3348      3345      3348      3349      3345      3348      3350
      3345      3348      3351      3349      3348      3350      3349      3348      3351
      3350      3348      3351      3348      3351      3352      3348      3351      3353
      3348      3351      3356      3352      3351      3353      3352      3351      3356
      3353      3351      3356      3351      3353      3354      3351      3353      3355
      3351      3353      3356      3354      3353      3355      3354      3353      3356
      3355      3353      3356      3351      3356      3353      3351      3356      3357
      3351      3356      3358      3353      3356      3357      3353      3356      3358
      3357      3356      3358      3356      3358      3359      3356      3358      3360
      3356      3358      3361      3359      3358      3360      3359      3358      3361
      3360      3358      3361      3358      3361      3362      3358      3361      3363
      3358      3361      3364      3362      3361      3363      3362      3361      3364
      3363      3361      3364      3361      3364      3365      3361      3364      3366
      3361      3364      3367      3365      3364      3366      3365      3364      3367
      3366      3364      3367      3364      3367      3368      3364      3367      3369
      3364      3367      3370      3368      3367      3369      3368      3367      3370
      3369      3367      3370      3367      3370      3371      3367      3370      3372
      3367      3370      3373      3371      3370      3372      3371      3370      3373
      3372      3370      3373      3370      3373      3374      3370      3373      3375
      3370      3373      3376      3374      3373      3375      3374      3373      3376
      3375      3373      3376      3330      3377      3378      3330      3377      3379
      3330      3377      3380      3378      3377      3379      3378      3377      3380
      3379      3377      3380      3377      3380      3381      3377      3380      3382
      3377      3380      3383      3381      3380      3382      3381      3380      3383
      3382      3380      3383      3380      3383      3384      3380      3383      3385
      3380      3383      3386      3384      3383      3385      3384      3383      3386
      3385      3383      3386      3383      3386      3387      3383      3386      3388
      3383      3386      3389      3387      3386      3388      3387      3386      3389
      3388      3386      3389      3386      3389      3390      3386      3389      3391
      3386      3389      3392      3390      3389      3391      3390      3389      3392
      3391      3389      3392      3389      3392      3393      3389      3392      3394
      3389      3392      3395      3393      3392      3394      3393      3392      3395
      3394      3392      3395      3392      3395      3396      3392      3395      3397
      3392      3395      3398      3396      3395      3397      3396      3395      3398
      3397      3395      3398      3395      3398      3399      3395      3398      3400
      3395      3398      3401      3399      3398      3400      3399      3398      3401
      3400      3398      3401      3398      3401      3402      3398      3401      3403
      3398      3401      3404      3402      3401      3403      3402      3401      3404
      3403      3401      3404      3401      3404      3405      3401      3404      3406
      3401      3404      3407      3405      3404      3406      3405      3404      3407
      3406      3404      3407      3404      3407      3408      3404      3407      3409
      3404      3407      3410      3408      3407      3409      3408      3407      3410
      3409      3407      3410      3407      3410      3411      3407      3410      3412
      3407      3410      3413      3411      3410      3412      3411      3410      3413
      3412      3410      3413      3410      3413      3414      3410      3413      3415
      3410      3413      3416      3414      3413      3415      3414      3413      3416
      3415      3413      3416      3413      3416      3417      3413      3416      3418
      3413      3416      3419      3417      3416      3418      3417      3416      3419
      3418      3416      3419      3421      3420      3422      3421      3420      3423
      3421      3420      3425      3422      3420      3423      3422      3420      3425
      3423      3420      3425      3420      3423      3424      3420      3425      3426
      3420      3425      3427      3420      3425      3429      3426      3425      3427
      3426      3425      3429      3427      3425      3429      3425      3427      3428
      3425      3429      3430      3425      3429      3431      3425      3429      3436
      3430      3429      3431      3430      3429      3436      3431      3429      3436
      3433      3432      3434      3433      3432      3435      3433      3432      3436
      3434      3432      3435      3434      3432      3436      3435      3432      3436
      3432      3435      3437      3429      3436      3432      3435      3437      3438
      3435      3437      3439      3435      3437      3440      3438      3437      3439
      3438      3437      3440      3439      3437      3440      3437      3440      3441
      3437      3440      3442      3437      3440      3448      3441      3440      3442
      3441      3440      3448      3442      3440      3448      3440      3442      3443
      3442      3443      3444      3442      3443      3445      3444      3443      3445
      3443      3445      3446      3443      3445      3447      3443      3445      3457
      3446      3445      3447      3446      3445      3457      3447      3445      3457
      3440      3448      3449      3440      3448      3450      3440      3448      3451
      3449      3448      3450      3449      3448      3451      3450      3448      3451
      3448      3451      3452      3451      3452      3453      3451      3452      3454
      3453      3452      3454      3452      3454      3455      3452      3454      3456
      3452      3454      3501      3455      3454      3456      3455      3454      3501
      3456      3454      3501      3445      3457      3458      3445      3457      3459
      3445      3457      3460      3458      3457      3459      3458      3457      3460
      3459      3457      3460      3457      3460      3461      3457      3460      3462
      3457      3460      3463      3461      3460      3462      3461      3460      3463
      3462      3460      3463      3460      3463      3464      3460      3463      3465
      3460      3463      3466      3464      3463      3465      3464      3463      3466
      3465      3463      3466      3463      3466      3467      3463      3466      3468
      3463      3466      3469      3467      3466      3468      3467      3466      3469
      3468      3466      3469      3466      3469      3470      3466      3469      3471
      3466      3469      3472      3470      3469      3471      3470      3469      3472
      3471      3469      3472      3469      3472      3473      3469      3472      3474
      3469      3472      3475      3473      3472      3474      3473      3472      3475
      3474      3472      3475      3472      3475      3476      3472      3475      3477
      3472      3475      3480      3476      3475      3477      3476      3475      3480
      3477      3475      3480      3475      3477      3478      3475      3477      3479
      3475      3477      3480      3478      3477      3479      3478      3477      3480
      3479      3477      3480      3475      3480      3477      3475      3480      3481
      3475      3480      3482      3477      3480      3481      3477      3480      3482
      3481      3480      3482      3480      3482      3483      3480      3482      3484
      3480      3482      3485      3483      3482      3484      3483      3482      3485
      3484      3482      3485      3482      3485      3486      3482      3485      3487
      3482      3485      3488      3486      3485      3487      3486      3485      3488
      3487      3485      3488      3485      3488      3489      3485      3488      3490
      3485      3488      3491      3489      3488      3490      3489      3488      3491
      3490      3488      3491      3488      3491      3492      3488      3491      3493
      3488      3491      3494      3492      3491      3493      3492      3491      3494
      3493      3491      3494      3491      3494      3495      3491      3494      3496
      3491      3494      3497      3495      3494      3496      3495      3494      3497
      3496      3494      3497      3494      3497      3498      3494      3497      3499
      3494      3497      3500      3498      3497      3499      3498      3497      3500
      3499      3497      3500      3454      3501      3502      3454      3501      3503
      3454      3501      3504      3502      3501      3503      3502      3501      3504
      3503      3501      3504      3501      3504      3505      3501      3504      3506
      3501      3504      3507      3505      3504      3506      3505      3504      3507
      3506      3504      3507      3504      3507      3508      3504      3507      3509
      3504      3507      3510      3508      3507      3509      3508      3507      3510
      3509      3507      3510      3507      3510      3511      3507      3510      3512
      3507      3510      3513      3511      3510      3512      3511      3510      3513
      3512      3510      3513      3510      3513      3514      3510      3513      3515
      3510      3513      3516      3514      3513      3515      3514      3513      3516
      3515      3513      3516      3513      3516      3517      3513      3516      3518
      3513      3516      3519      3517      3516      3518      3517      3516      3519
      3518      3516      3519      3516      3519      3520      3516      3519      3521
      3516      3519      3522      3520      3519      3521      3520      3519      3522
      3521      3519      3522      3519      3522      3523      3519      3522      3524
      3519      3522      3525      3523      3522      3524      3523      3522      3525
      3524      3522      3525      3522      3525      3526      3522      3525      3527
      3522      3525      3528      3526      3525      3527      3526      3525      3528
      3527      3525      3528      3525      3528      3529      3525      3528      3530
      3525      3528      3531      3529      3528      3530      3529      3528      3531
      3530      3528      3531      3528      3531      3532      3528      3531      3533
      3528      3531      3534      3532      3531      3533      3532      3531      3534
      3533      3531      3534      3531      3534      3535      3531      3534      3536
      3531      3534      3537      3535      3534      3536      3535      3534      3537
      3536      3534      3537      3534      3537      3538      3534      3537      3539
      3534      3537      3540      3538      3537      3539      3538      3537      3540
      3539      3537      3540      3537      3540      3541      3537      3540      3542
      3537      3540      3543      3541      3540      3542      3541      3540      3543
      3542      3540      3543      3545      3544      3546      3545      3544      3547
      3545      3544      3548      3546      3544      3547      3546      3544      3548
      3547      3544      3548      3544      3548      3549      3544      3548      3550
      3544      3548      3551      3549      3548      3550      3549      3548      3551
      3550      3548      3551      3548      3551      3552      3548      3551      3553
      3548      3551      3558      3552      3551      3553      3552      3551      3558
      3553      3551      3558      3555      3554      3556      3555      3554      3557
      3555      3554      3558      3556      3554      3557      3556      3554      3558
      3557      3554      3558      3554      3557      3559      3551      3558      3554
      3557      3559      3560      3557      3559      3561      3557      3559      3562
      3560      3559      3561      3560      3559      3562      3561      3559      3562
      3559      3562      3563      3559      3562      3564      3559      3562      3570
      3563      3562      3564      3563      3562      3570      3564      3562      3570
      3562      3564      3565      3564      3565      3566      3564      3565      3567
      3566      3565      3567      3565      3567      3568      3565      3567      3569
      3565      3567      3579      3568      3567      3569      3568      3567      3579
      3569      3567      3579      3562      3570      3571      3562      3570      3572
      3562      3570      3573      3571      3570      3572      3571      3570      3573
      3572      3570      3573      3570      3573      3574      3573      3574      3575
      3573      3574      3576      3575      3574      3576      3574      3576      3577
      3574      3576      3578      3574      3576      3623      3577      3576      3578
      3577      3576      3623      3578      3576      3623      3567      3579      3580
      3567      3579      3581      3567      3579      3582      3580      3579      3581
      3580      3579      3582      3581      3579      3582      3579      3582      3583
      3579      3582      3584      3579      3582      3585      3583      3582      3584
      3583      3582      3585      3584      3582      3585      3582      3585      3586
      3582      3585      3587      3582      3585      3588      3586      3585      3587
      3586      3585      3588      3587      3585      3588      3585      3588      3589
      3585      3588      3590      3585      3588      3591      3589      3588      3590
      3589      3588      3591      3590      3588      3591      3588      3591      3592
      3588      3591      3593      3588      3591      3594      3592      3591      3593
      3592      3591      3594      3593      3591      3594      3591      3594      3595
      3591      3594      3596      3591      3594      3597      3595      3594      3596
      3595      3594      3597      3596      3594      3597      3594      3597      3598
      3594      3597      3599      3594      3597      3602      3598      3597      3599
      3598      3597      3602      3599      3597      3602      3597      3599      3600
      3597      3599      3601      3597      3599      3602      3600      3599      3601
      3600      3599      3602      3601      3599      3602      3597      3602      3599
      3597      3602      3603      3597      3602      3604      3599      3602      3603
      3599      3602      3604      3603      3602      3604      3602      3604      3605
      3602      3604      3606      3602      3604      3607      3605      3604      3606
      3605      3604      3607      3606      3604      3607      3604      3607      3608
      3604      3607      3609      3604      3607      3610      3608      3607      3609
      3608      3607      3610      3609      3607      3610      3607      3610      3611
      3607      3610      3612      3607      3610      3613      3611      3610      3612
      3611      3610      3613      3612      3610      3613      3610      3613      3614
      3610      3613      3615      3610      3613      3616      3614      3613      3615
      3614      3613      3616      3615      3613      3616      3613      3616      3617
      3613      3616      3618      3613      3616      3619      3617      3616      3618
      3617      3616      3619      3618      3616      3619      3616      3619      3620
      3616      3619      3621      3616      3619      3622      3620      3619      3621
      3620      3619      3622      3621      3619      3622      3576      3623      3624
      3576      3623      3625      3576      3623      3626      3624      3623      3625
      3624      3623      3626      3625      3623      3626      3623      3626      3627
      3623      3626      3628      3623      3626      3629      3627      3626      3628
      3627      3626      3629      3628      3626      3629      3626      3629      3630
      3626      3629      3631      3626      3629      3632      3630      3629      3631
      3630      3629      3632      3631      3629      3632      3629      3632      3633
      3629      3632      3634      3629      3632      3635      3633      3632      3634
      3633      3632      3635      3634      3632      3635      3632      3635      3636
      3632      3635      3637      3632      3635      3638      3636      3635      3637
      3636      3635      3638      3637      3635      3638      3635      3638      3639
      3635      3638      3640      3635      3638      3641      3639      3638      3640
      3639      3638      3641      3640      3638      3641      3638      3641      3642
      3638      3641      3643      3638      3641      3644      3642      3641      3643
      3642      3641      3644      3643      3641      3644      3641      3644      3645
      3641      3644      3646      3641      3644      3647      3645      3644      3646
      3645      3644      3647      3646      3644      3647      3644      3647      3648
      3644      3647      3649      3644      3647      3650      3648      3647      3649
      3648      3647      3650      3649      3647      3650      3647      3650      3651
      3647      3650      3652      3647      3650      3653      3651      3650      3652
      3651      3650      3653      3652      3650      3653      3650      3653      3654
      3650      3653      3655      3650      3653      3656      3654      3653      3655
      3654      3653      3656      3655      3653      3656      3653      3656      3657
      3653      3656      3658      3653      3656      3659      3657      3656      3658
      3657      3656      3659      3658      3656      3659      3656      3659      3660
      3656      3659      3661      3656      3659      3662      3660      3659      3661
      3660      3659      3662      3661      3659      3662      3659      3662      3663
      3659      3662      3664      3659      3662      3665      3663      3662      3664
      3663      3662      3665      3664      3662      3665      3667      3666      3668
      3667      3666      3669      3667      3666      3671      3668      3666      3669
      3668      3666      3671      3669      3666      3671      3666      3669      3670
      3666      3671      3672      3666      3671      3673      3666      3671      3675
      3672      3671      3673      3672      3671      3675      3673      3671      3675
      3671      3673      3674      3671      3675      3676      3671      3675      3677
      3671      3675      3682      3676      3675      3677      3676      3675      3682
      3677      3675      3682      3679      3678      3680      3679      3678      3681
      3679      3678      3682      3680      3678      3681      3680      3678      3682
      3681      3678      3682      3678      3681      3683      3675      3682      3678
      3681      3683      3684      3681      3683      3685      3681      3683      3686
      3684      3683      3685      3684      3683      3686      3685      3683      3686
      3683      3686      3687      3683      3686      3688      3683      3686      3694
      3687      3686      3688      3687      3686      3694      3688      3686      3694
      3686      3688      3689      3688      3689      3690      3688      3689      3691
      3690      3689      3691      3689      3691      3692      3689      3691      3693
      3689      3691      3703      3692      3691      3693      3692      3691      3703
      3693      3691      3703      3686      3694      3695      3686      3694      3696
      3686      3694      3697      3695      3694      3696      3695      3694      3697
      3696      3694      3697      3694      3697      3698      3697      3698      3699
      3697      3698      3700      3699      3698      3700      3698      3700      3701
      3698      3700      3702      3698      3700      3744      3701      3700      3702
      3701      3700      3744      3702      3700      3744      3691      3703      3704
      3691      3703      3705      3691      3703      3706      3704      3703      3705
      3704      3703      3706      3705      3703      3706      3703      3706      3707
      3703      3706      3708      3703      3706      3709      3707      3706      3708
      3707      3706      3709      3708      3706      3709      3706      3709      3710
      3706      3709      3711      3706      3709      3712      3710      3709      3711
      3710      3709      3712      3711      3709      3712      3709      3712      3713
      3709      3712      3714      3709      3712      3715      3713      3712      3714
      3713      3712      3715      3714      3712      3715      3712      3715      3716
      3712      3715      3717      3712      3715      3718      3716      3715      3717
      3716      3715      3718      3717      3715      3718      3715      3718      3719
      3715      3718      3720      3715      3718      3721      3719      3718      3720
      3719      3718      3721      3720      3718      3721      3718      3721      3722
      3718      3721      3723      3722      3721      3723      3721      3723      3724
      3721      3723      3725      3724      3723      3725      3723      3725      3726
      3723      3725      3727      3723      3725      3728      3726      3725      3727
      3726      3725      3728      3727      3725      3728      3725      3728      3729
      3725      3728      3730      3725      3728      3731      3729      3728      3730
      3729      3728      3731      3730      3728      3731      3728      3731      3732
      3728      3731      3733      3728      3731      3734      3732      3731      3733
      3732      3731      3734      3733      3731      3734      3731      3734      3735
      3731      3734      3736      3731      3734      3737      3735      3734      3736
      3735      3734      3737      3736      3734      3737      3734      3737      3738
      3734      3737      3739      3734      3737      3740      3738      3737      3739
      3738      3737      3740      3739      3737      3740      3737      3740      3741
      3737      3740      3742      3737      3740      3743      3741      3740      3742
      3741      3740      3743      3742      3740      3743      3700      3744      3745
      3700      3744      3746      3700      3744      3747      3745      3744      3746
      3745      3744      3747      3746      3744      3747      3744      3747      3748
      3744      3747      3749      3744      3747      3750      3748      3747      3749
      3748      3747      3750      3749      3747      3750      3747      3750      3751
      3747      3750      3752      3747      3750      3753      3751      3750      3752
      3751      3750      3753      3752      3750      3753      3750      3753      3754
      3750      3753      3755      3750      3753      3756      3754      3753      3755
      3754      3753      3756      3755      3753      3756      3753      3756      3757
      3753      3756      3758      3753      3756      3759      3757      3756      3758
      3757      3756      3759      3758      3756      3759      3756      3759      3760
      3756      3759      3761      3756      3759      3762      3760      3759      3761
      3760      3759      3762      3761      3759      3762      3759      3762      3763
      3759      3762      3764      3759      3762      3765      3763      3762      3764
      3763      3762      3765      3764      3762      3765      3762      3765      3766
      3762      3765      3767      3762      3765      3768      3766      3765      3767
      3766      3765      3768      3767      3765      3768      3765      3768      3769
      3765      3768      3770      3765      3768      3771      3769      3768      3770
      3769      3768      3771      3770      3768      3771      3768      3771      3772
      3768      3771      3773      3768      3771      3774      3772      3771      3773
      3772      3771      3774      3773      3771      3774      3771      3774      3775
      3771      3774      3776      3771      3774      3777      3775      3774      3776
      3775      3774      3777      3776      3774      3777      3774      3777      3778
      3774      3777      3779      3774      3777      3780      3778      3777      3779
      3778      3777      3780      3779      3777      3780      3777      3780      3781
      3777      3780      3782      3777      3780      3783      3781      3780      3782
      3781      3780      3783      3782      3780      3783      3780      3783      3784
      3780      3783      3785      3780      3783      3786      3784      3783      3785
      3784      3783      3786      3785      3783      3786      3788      3787      3789
      3788      3787      3790      3788      3787      3791      3789      3787      3790
      3789      3787      3791      3790      3787      3791      3787      3791      3792
      3787      3791      3793      3787      3791      3794      3792      3791      3793
      3792      3791      3794      3793      3791      3794      3791      3794      3795
      3791      3794      3796      3791      3794      3801      3795      3794      3796
      3795      3794      3801      3796      3794      3801      3798      3797      3799
      3798      3797      3800      3798      3797      3801      3799      3797      3800
      3799      3797      3801      3800      3797      3801      3797      3800      3802
      3794      3801      3797      3800      3802      3803      3800      3802      3804
      3800      3802      3805      3803      3802      3804      3803      3802      3805
      3804      3802      3805      3802      3805      3806      3802      3805      3807
      3802      3805      3813      3806      3805      3807      3806      3805      3813
      3807      3805      3813      3805      3807      3808      3807      3808      3809
      3807      3808      3810      3809      3808      3810      3808      3810      3811
      3808      3810      3812      3808      3810      3822      3811      3810      3812
      3811      3810      3822      3812      3810      3822      3805      3813      3814
      3805      3813      3815      3805      3813      3816      3814      3813      3815
      3814      3813      3816      3815      3813      3816      3813      3816      3817
      3816      3817      3818      3816      3817      3819      3818      3817      3819
      3817      3819      3820      3817      3819      3821      3817      3819      3863
      3820      3819      3821      3820      3819      3863      3821      3819      3863
      3810      3822      3823      3810      3822      3824      3810      3822      3825
      3823      3822      3824      3823      3822      3825      3824      3822      3825
      3822      3825      3826      3822      3825      3827      3822      3825      3828
      3826      3825      3827      3826      3825      3828      3827      3825      3828
      3825      3828      3829      3825      3828      3830      3825      3828      3831
      3829      3828      3830      3829      3828      3831      3830      3828      3831
      3828      3831      3832      3828      3831      3833      3828      3831      3834
      3832      3831      3833      3832      3831      3834      3833      3831      3834
      3831      3834      3835      3831      3834      3836      3831      3834      3837
      3835      3834      3836      3835      3834      3837      3836      3834      3837
      3834      3837      3838      3834      3837      3839      3834      3837      3840
      3838      3837      3839      3838      3837      3840      3839      3837      3840
      3837      3840      3841      3837      3840      3842      3841      3840      3842
      3840      3842      3843      3840      3842      3844      3843      3842      3844
      3842      3844      3845      3842      3844      3846      3842      3844      3847
      3845      3844      3846      3845      3844      3847      3846      3844      3847
      3844      3847      3848      3844      3847      3849      3844      3847      3850
      3848      3847      3849      3848      3847      3850      3849      3847      3850
      3847      3850      3851      3847      3850      3852      3847      3850      3853
      3851      3850      3852      3851      3850      3853      3852      3850      3853
      3850      3853      3854      3850      3853      3855      3850      3853      3856
      3854      3853      3855      3854      3853      3856      3855      3853      3856
      3853      3856      3857      3853      3856      3858      3853      3856      3859
      3857      3856      3858      3857      3856      3859      3858      3856      3859
      3856      3859      3860      3856      3859      3861      3856      3859      3862
      3860      3859      3861      3860      3859      3862      3861      3859      3862
      3819      3863      3864      3819      3863      3865      3819      3863      3866
      3864      3863      3865      3864      3863      3866      3865      3863      3866
      3863      3866      3867      3863      3866      3868      3863      3866      3869
      3867      3866      3868      3867      3866      3869      3868      3866      3869
      3866      3869      3870      3866      3869      3871      3866      3869      3872
      3870      3869      3871      3870      3869      3872      3871      3869      3872
      3869      3872      3873      3869      3872      3874      3869      3872      3875
      3873      3872      3874      3873      3872      3875      3874      3872      3875
      3872      3875      3876      3872      3875      3877      3872      3875      3878
      3876      3875      3877      3876      3875      3878      3877      3875      3878
      3875      3878      3879      3875      3878      3880      3875      3878      3881
      3879      3878      3880      3879      3878      3881      3880      3878      3881
      3878      3881      3882      3878      3881      3883      3882      3881      3883
      3881      3883      3884      3881      3883      3885      3884      3883      3885
      3883      3885      3886      3883      3885      3887      3883      3885      3888
      3886      3885      3887      3886      3885      3888      3887      3885      3888
      3885      3888      3889      3885      3888      3890      3885      3888      3891
      3889      3888      3890      3889      3888      3891      3890      3888      3891
      3888      3891      3892      3888      3891      3893      3888      3891      3894
      3892      3891      3893      3892      3891      3894      3893      3891      3894
      3891      3894      3895      3891      3894      3896      3891      3894      3897
      3895      3894      3896      3895      3894      3897      3896      3894      3897
      3894      3897      3898      3894      3897      3899      3894      3897      3900
      3898      3897      3899      3898      3897      3900      3899      3897      3900
      3897      3900      3901      3897      3900      3902      3897      3900      3903
      3901      3900      3902      3901      3900      3903      3902      3900      3903
      3900      3903      3904      3900      3903      3905      3900      3903      3906
      3904      3903      3905      3904      3903      3906      3905      3903      3906
      3903      3906      3907      3903      3906      3908      3903      3906      3909
      3907      3906      3908      3907      3906      3909      3908      3906      3909
      3911      3910      3912      3911      3910      3913      3911      3910      3914
      3912      3910      3913      3912      3910      3914      3913      3910      3914
      3910      3914      3915      3910      3914      3916      3910      3914      3917
      3915      3914      3916      3915      3914      3917      3916      3914      3917
      3914      3917      3918      3914      3917      3919      3914      3917      3924
      3918      3917      3919      3918      3917      3924      3919      3917      3924
      3921      3920      3922      3921      3920      3923      3921      3920      3924
      3922      3920      3923      3922      3920      3924      3923      3920      3924
      3920      3923      3925      3917      3924      3920      3923      3925      3926
      3923      3925      3927      3923      3925      3928      3926      3925      3927
      3926      3925      3928      3927      3925      3928      3925      3928      3929
      3925      3928      3930      3925      3928      3936      3929      3928      3930
      3929      3928      3936      3930      3928      3936      3928      3930      3931
      3930      3931      3932      3930      3931      3933      3932      3931      3933
      3931      3933      3934      3931      3933      3935      3931      3933      3945
      3934      3933      3935      3934      3933      3945      3935      3933      3945
      3928      3936      3937      3928      3936      3938      3928      3936      3939
      3937      3936      3938      3937      3936      3939      3938      3936      3939
      3936      3939      3940      3939      3940      3941      3939      3940      3942
      3941      3940      3942      3940      3942      3943      3940      3942      3944
      3940      3942      3986      3943      3942      3944      3943      3942      3986
      3944      3942      3986      3933      3945      3946      3933      3945      3947
      3933      3945      3948      3946      3945      3947      3946      3945      3948
      3947      3945      3948      3945      3948      3949      3945      3948      3950
      3945      3948      3951      3949      3948      3950      3949      3948      3951
      3950      3948      3951      3948      3951      3952      3948      3951      3953
      3948      3951      3954      3952      3951      3953      3952      3951      3954
      3953      3951      3954      3951      3954      3955      3951      3954      3956
      3951      3954      3957      3955      3954      3956      3955      3954      3957
      3956      3954      3957      3954      3957      3958      3954      3957      3959
      3954      3957      3960      3958      3957      3959      3958      3957      3960
      3959      3957      3960      3957      3960      3961      3957      3960      3962
      3957      3960      3963      3961      3960      3962      3961      3960      3963
      3962      3960      3963      3960      3963      3964      3960      3963      3965
      3964      3963      3965      3963      3965      3966      3963      3965      3967
      3966      3965      3967      3965      3967      3968      3965      3967      3969
      3965      3967      3970      3968      3967      3969      3968      3967      3970
      3969      3967      3970      3967      3970      3971      3967      3970      3972
      3967      3970      3973      3971      3970      3972      3971      3970      3973
      3972      3970      3973      3970      3973      3974      3970      3973      3975
      3970      3973      3976      3974      3973      3975      3974      3973      3976
      3975      3973      3976      3973      3976      3977      3973      3976      3978
      3973      3976      3979      3977      3976      3978      3977      3976      3979
      3978      3976      3979      3976      3979      3980      3976      3979      3981
      3976      3979      3982      3980      3979      3981      3980      3979      3982
      3981      3979      3982      3979      3982      3983      3979      3982      3984
      3979      3982      3985      3983      3982      3984      3983      3982      3985
      3984      3982      3985      3942      3986      3987      3942      3986      3988
      3942      3986      3989      3987      3986      3988      3987      3986      3989
      3988      3986      3989      3986      3989      3990      3986      3989      3991
      3986      3989      3992      3990      3989      3991      3990      3989      3992
      3991      3989      3992      3989      3992      3993      3989      3992      3994
      3989      3992      3995      3993      3992      3994      3993      3992      3995
      3994      3992      3995      3992      3995      3996      3992      3995      3997
      3992      3995      3998      3996      3995      3997      3996      3995      3998
      3997      3995      3998      3995      3998      3999      3995      3998      4000
      3995      3998      4001      3999      3998      4000      3999      3998      4001
      4000      3998      4001      3998      4001      4002      3998      4001      4003
      3998      4001      4004      4002      4001      4003      4002      4001      4004
      4003      4001      4004      4001      4004      4005      4001      4004      4006
      4005      4004      4006      4004      4006      4007      4004      4006      4008
      4007      4006      4008      4006      4008      4009      4006      4008      4010
      4006      4008      4011      4009      4008      4010      4009      4008      4011
      4010      4008      4011      4008      4011      4012      4008      4011      4013
      4008      4011      4014      4012      4011      4013      4012      4011      4014
      4013      4011      4014      4011      4014      4015      4011      4014      4016
      4011      4014      4017      4015      4014      4016      4015      4014      4017
      4016      4014      4017      4014      4017      4018      4014      4017      4019
      4014      4017      4020      4018      4017      4019      4018      4017      4020
      4019      4017      4020      4017      4020      4021      4017      4020      4022
      4017      4020      4023      4021      4020      4022      4021      4020      4023
      4022      4020      4023      4020      4023      4024      4020      4023      4025
      4020      4023      4026      4024      4023      4025      4024      4023      4026
      4025      4023      4026      4023      4026      4027      4023      4026      4028
      4023      4026      4029      4027      4026      4028      4027      4026      4029
      4028      4026      4029      4026      4029      4030      4026      4029      4031
      4026      4029      4032      4030      4029      4031      4030      4029      4032
      4031      4029      4032      4034      4033      4035      4034      4033      4036
      4034      4033      4038      4035      4033      4036      4035      4033      4038
      4036      4033      4038      4033      4036      4037      4033      4038      4039
      4033      4038      4040      4033      4038      4042      4039      4038      4040
      4039      4038      4042      4040      4038      4042      4038      4040      4041
      4038      4042      4043      4038      4042      4044      4038      4042      4049
      4043      4042      4044      4043      4042      4049      4044      4042      4049
      4046      4045      4047      4046      4045      4048      4046      4045      4049
      4047      4045      4048      4047      4045      4049      4048      4045      4049
      4045      4048      4050      4042      4049      4045      4048      4050      4051
      4048      4050      4052      4048      4050      4053      4051      4050      4052
      4051      4050      4053      4052      4050      4053      4050      4053      4054
      4050      4053      4055      4050      4053      4061      4054      4053      4055
      4054      4053      4061      4055      4053      4061      4053      4055      4056
      4055      4056      4057      4055      4056      4058      4057      4056      4058
      4056      4058      4059      4056      4058      4060      4056      4058      4070
      4059      4058      4060      4059      4058      4070      4060      4058      4070
      4053      4061      4062      4053      4061      4063      4053      4061      4064
      4062      4061      4063      4062      4061      4064      4063      4061      4064
      4061      4064      4065      4064      4065      4066      4064      4065      4067
      4066      4065      4067      4065      4067      4068      4065      4067      4069
      4065      4067      4114      4068      4067      4069      4068      4067      4114
      4069      4067      4114      4058      4070      4071      4058      4070      4072
      4058      4070      4073      4071      4070      4072      4071      4070      4073
      4072      4070      4073      4070      4073      4074      4070      4073      4075
      4070      4073      4076      4074      4073      4075      4074      4073      4076
      4075      4073      4076      4073      4076      4077      4073      4076      4078
      4073      4076      4079      4077      4076      4078      4077      4076      4079
      4078      4076      4079      4076      4079      4080      4076      4079      4081
      4076      4079      4082      4080      4079      4081      4080      4079      4082
      4081      4079      4082      4079      4082      4083      4079      4082      4084
      4079      4082      4085      4083      4082      4084      4083      4082      4085
      4084      4082      4085      4082      4085      4086      4082      4085      4087
      4082      4085      4088      4086      4085      4087      4086      4085      4088
      4087      4085      4088      4085      4088      4089      4085      4088      4090
      4085      4088      4093      4089      4088      4090      4089      4088      4093
      4090      4088      4093      4088      4090      4091      4088      4090      4092
      4088      4090      4093      4091      4090      4092      4091      4090      4093
      4092      4090      4093      4088      4093      4090      4088      4093      4094
      4088      4093      4095      4090      4093      4094      4090      4093      4095
      4094      4093      4095      4093      4095      4096      4093      4095      4097
      4093      4095      4098      4096      4095      4097      4096      4095      4098
      4097      4095      4098      4095      4098      4099      4095      4098      4100
      4095      4098      4101      4099      4098      4100      4099      4098      4101
      4100      4098      4101      4098      4101      4102      4098      4101      4103
      4098      4101      4104      4102      4101      4103      4102      4101      4104
      4103      4101      4104      4101      4104      4105      4101      4104      4106
      4101      4104      4107      4105      4104      4106      4105      4104      4107
      4106      4104      4107      4104      4107      4108      4104      4107      4109
      4104      4107      4110      4108      4107      4109      4108      4107      4110
      4109      4107      4110      4107      4110      4111      4107      4110      4112
      4107      4110      4113      4111      4110      4112      4111      4110      4113
      4112      4110      4113      4067      4114      4115      4067      4114      4116
      4067      4114      4117      4115      4114      4116      4115      4114      4117
      4116      4114      4117      4114      4117      4118      4114      4117      4119
      4114      4117      4120      4118      4117      4119      4118      4117      4120
      4119      4117      4120      4117      4120      4121      4117      4120      4122
      4117      4120      4123      4121      4120      4122      4121      4120      4123
      4122      4120      4123      4120      4123      4124      4120      4123      4125
      4120      4123      4126      4124      4123      4125      4124      4123      4126
      4125      4123      4126      4123      4126      4127      4123      4126      4128
      4123      4126      4129      4127      4126      4128      4127      4126      4129
      4128      4126      4129      4126      4129      4130      4126      4129      4131
      4126      4129      4132      4130      4129      4131      4130      4129      4132
      4131      4129      4132      4129      4132      4133      4129      4132      4134
      4129      4132      4135      4133      4132      4134      4133      4132      4135
      4134      4132      4135      4132      4135      4136      4132      4135      4137
      4132      4135      4138      4136      4135      4137      4136      4135      4138
      4137      4135      4138      4135      4138      4139      4135      4138      4140
      4135      4138      4141      4139      4138      4140      4139      4138      4141
      4140      4138      4141      4138      4141      4142      4138      4141      4143
      4138      4141      4144      4142      4141      4143      4142      4141      4144
      4143      4141      4144      4141      4144      4145      4141      4144      4146
      4141      4144      4147      4145      4144      4146      4145      4144      4147
      4146      4144      4147      4144      4147      4148      4144      4147      4149
      4144      4147      4150      4148      4147      4149      4148      4147      4150
      4149      4147      4150      4147      4150      4151      4147      4150      4152
      4147      4150      4153      4151      4150      4152      4151      4150      4153
      4152      4150      4153      4150      4153      4154      4150      4153      4155
      4150      4153      4156      4154      4153      4155      4154      4153      4156
      4155      4153      4156      4158      4157      4159      4158      4157      4160
      4158      4157      4161      4159      4157      4160      4159      4157      4161
      4160      4157      4161      4157      4161      4162      4157      4161      4163
      4157      4161      4164      4162      4161      4163      4162      4161      4164
      4163      4161      4164      4161      4164      4165      4161      4164      4166
      4161      4164      4171      4165      4164      4166      4165      4164      4171
      4166      4164      4171      4168      4167      4169      4168      4167      4170
      4168      4167      4171      4169      4167      4170      4169      4167      4171
      4170      4167      4171      4167      4170      4172      4164      4171      4167
      4170      4172      4173      4170      4172      4174      4170      4172      4175
      4173      4172      4174      4173      4172      4175      4174      4172      4175
      4172      4175      4176      4172      4175      4177      4172      4175      4183
      4176      4175      4177      4176      4175      4183      4177      4175      4183
      4175      4177      4178      4177      4178      4179      4177      4178      4180
      4179      4178      4180      4178      4180      4181      4178      4180      4182
      4178      4180      4192      4181      4180      4182      4181      4180      4192
      4182      4180      4192      4175      4183      4184      4175      4183      4185
      4175      4183      4186      4184      4183      4185      4184      4183      4186
      4185      4183      4186      4183      4186      4187      4186      4187      4188
      4186      4187      4189      4188      4187      4189      4187      4189      4190
      4187      4189      4191      4187      4189      4236      4190      4189      4191
      4190      4189      4236      4191      4189      4236      4180      4192      4193
      4180      4192      4194      4180      4192      4195      4193      4192      4194
      4193      4192      4195      4194      4192      4195      4192      4195      4196
      4192      4195      4197      4192      4195      4198      4196      4195      4197
      4196      4195      4198      4197      4195      4198      4195      4198      4199
      4195      4198      4200      4195      4198      4201      4199      4198      4200
      4199      4198      4201      4200      4198      4201      4198      4201      4202
      4198      4201      4203      4198      4201      4204      4202      4201      4203
      4202      4201      4204      4203      4201      4204      4201      4204      4205
      4201      4204      4206      4201      4204      4207      4205      4204      4206
      4205      4204      4207      4206      4204      4207      4204      4207      4208
      4204      4207      4209      4204      4207      4210      4208      4207      4209
      4208      4207      4210      4209      4207      4210      4207      4210      4211
      4207      4210      4212      4207      4210      4215      4211      4210      4212
      4211      4210      4215      4212      4210      4215      4210      4212      4213
      4210      4212      4214      4210      4212      4215      4213      4212      4214
      4213      4212      4215      4214      4212      4215      4210      4215      4212
      4210      4215      4216      4210      4215      4217      4212      4215      4216
      4212      4215      4217      4216      4215      4217      4215      4217      4218
      4215      4217      4219      4215      4217      4220      4218      4217      4219
      4218      4217      4220      4219      4217      4220      4217      4220      4221
      4217      4220      4222      4217      4220      4223      4221      4220      4222
      4221      4220      4223      4222      4220      4223      4220      4223      4224
      4220      4223      4225      4220      4223      4226      4224      4223      4225
      4224      4223      4226      4225      4223      4226      4223      4226      4227
      4223      4226      4228      4223      4226      4229      4227      4226      4228
      4227      4226      4229      4228      4226      4229      4226      4229      4230
      4226      4229      4231      4226      4229      4232      4230      4229      4231
      4230      4229      4232      4231      4229      4232      4229      4232      4233
      4229      4232      4234      4229      4232      4235      4233      4232      4234
      4233      4232      4235      4234      4232      4235      4189      4236      4237
      4189      4236      4238      4189      4236      4239      4237      4236      4238
      4237      4236      4239      4238      4236      4239      4236      4239      4240
      4236      4239      4241      4236      4239      4242      4240      4239      4241
      4240      4239      4242      4241      4239      4242      4239      4242      4243
      4239      4242      4244      4239      4242      4245      4243      4242      4244
      4243      4242      4245      4244      4242      4245      4242      4245      4246
      4242      4245      4247      4242      4245      4248      4246      4245      4247
      4246      4245      4248      4247      4245      4248      4245      4248      4249
      4245      4248      4250      4245      4248      4251      4249      4248      4250
      4249      4248      4251      4250      4248      4251      4248      4251      4252
      4248      4251      4253      4248      4251      4254      4252      4251      4253
      4252      4251      4254      4253      4251      4254      4251      4254      4255
      4251      4254      4256      4251      4254      4257      4255      4254      4256
      4255      4254      4257      4256      4254      4257      4254      4257      4258
      4254      4257      4259      4254      4257      4260      4258      4257      4259
      4258      4257      4260      4259      4257      4260      4257      4260      4261
      4257      4260      4262      4257      4260      4263      4261      4260      4262
      4261      4260      4263      4262      4260      4263      4260      4263      4264
      4260      4263      4265      4260      4263      4266      4264      4263      4265
      4264      4263      4266      4265      4263      4266      4263      4266      4267
      4263      4266      4268      4263      4266      4269      4267      4266      4268
      4267      4266      4269      4268      4266      4269      4266      4269      4270
      4266      4269      4271      4266      4269      4272      4270      4269      4271
      4270      4269      4272      4271      4269      4272      4269      4272      4273
      4269      4272      4274      4269      4272      4275      4273      4272      4274
      4273      4272      4275      4274      4272      4275      4272      4275      4276
      4272      4275      4277      4272      4275      4278      4276      4275      4277
      4276      4275      4278      4277      4275      4278      4280      4279      4281
      4280      4279      4282      4280      4279      4283      4281      4279      4282
      4281      4279      4283      4282      4279      4283      4279      4283      4284
      4279      4283      4285      4279      4283      4286      4284      4283      4285
      4284      4283      4286      4285      4283      4286      4283      4286      4287
      4283      4286      4288      4283      4286      4293      4287      4286      4288
      4287      4286      4293      4288      4286      4293      4290      4289      4291
      4290      4289      4292      4290      4289      4293      4291      4289      4292
      4291      4289      4293      4292      4289      4293      4289      4292      4294
      4286      4293      4289      4292      4294      4295      4292      4294      4296
      4292      4294      4297      4295      4294      4296      4295      4294      4297
      4296      4294      4297      4294      4297      4298      4294      4297      4299
      4294      4297      4305      4298      4297      4299      4298      4297      4305
      4299      4297      4305      4297      4299      4300      4299      4300      4301
      4299      4300      4302      4301      4300      4302      4300      4302      4303
      4300      4302      4304      4300      4302      4314      4303      4302      4304
      4303      4302      4314      4304      4302      4314      4297      4305      4306
      4297      4305      4307      4297      4305      4308      4306      4305      4307
      4306      4305      4308      4307      4305      4308      4305      4308      4309
      4308      4309      4310      4308      4309      4311      4310      4309      4311
      4309      4311      4312      4309      4311      4313      4309      4311      4361
      4312      4311      4313      4312      4311      4361      4313      4311      4361
      4302      4314      4315      4302      4314      4316      4302      4314      4317
      4315      4314      4316      4315      4314      4317      4316      4314      4317
      4314      4317      4318      4314      4317      4319      4314      4317      4320
      4318      4317      4319      4318      4317      4320      4319      4317      4320
      4317      4320      4321      4317      4320      4322      4317      4320      4323
      4321      4320      4322      4321      4320      4323      4322      4320      4323
      4320      4323      4324      4320      4323      4325      4320      4323      4326
      4324      4323      4325      4324      4323      4326      4325      4323      4326
      4323      4326      4327      4323      4326      4328      4323      4326      4329
      4327      4326      4328      4327      4326      4329      4328      4326      4329
      4326      4329      4330      4326      4329      4331      4326      4329      4332
      4330      4329      4331      4330      4329      4332      4331      4329      4332
      4329      4332      4333      4329      4332      4334      4333      4332      4334
      4332      4334      4335      4332      4334      4336      4335      4334      4336
      4334      4336      4337      4334      4336      4338      4334      4336      4339
      4337      4336      4338      4337      4336      4339      4338      4336      4339
      4336      4339      4340      4336      4339      4341      4336      4339      4342
      4340      4339      4341      4340      4339      4342      4341      4339      4342
      4339      4342      4343      4339      4342      4344      4339      4342      4345
      4343      4342      4344      4343      4342      4345      4344      4342      4345
      4342      4345      4346      4342      4345      4347      4342      4345      4348
      4346      4345      4347      4346      4345      4348      4347      4345      4348
      4345      4348      4349      4345      4348      4350      4345      4348      4351
      4349      4348      4350      4349      4348      4351      4350      4348      4351
      4348      4351      4352      4348      4351      4353      4348      4351      4354
      4352      4351      4353      4352      4351      4354      4353      4351      4354
      4351      4354      4355      4351      4354      4356      4351      4354      4357
      4355      4354      4356      4355      4354      4357      4356      4354      4357
      4354      4357      4358      4354      4357      4359      4354      4357      4360
      4358      4357      4359      4358      4357      4360      4359      4357      4360
      4311      4361      4362      4311      4361      4363      4311      4361      4364
      4362      4361      4363      4362      4361      4364      4363      4361      4364
      4361      4364      4365      4361      4364      4366      4361      4364      4367
      4365      4364      4366      4365      4364      4367      4366      4364      4367
      4364      4367      4368      4364      4367      4369      4364      4367      4370
      4368      4367      4369      4368      4367      4370      4369      4367      4370
      4367      4370      4371      4367      4370      4372      4367      4370      4373
      4371      4370      4372      4371      4370      4373      4372      4370      4373
      4370      4373      4374      4370      4373      4375      4370      4373      4376
      4374      4373      4375      4374      4373      4376      4375      4373      4376
      4373      4376      4377      4373      4376      4378      4373      4376      4379
      4377      4376      4378      4377      4376      4379      4378      4376      4379
      4376      4379      4380      4376      4379      4381      4376      4379      4382
      4380      4379      4381      4380      4379      4382      4381      4379      4382
      4379      4382      4383      4379      4382      4384      4379      4382      4385
      4383      4382      4384      4383      4382      4385      4384      4382      4385
      4382      4385      4386      4382      4385      4387      4382      4385      4388
      4386      4385      4387      4386      4385      4388      4387      4385      4388
      4385      4388      4389      4385      4388      4390      4385      4388      4391
      4389      4388      4390      4389      4388      4391      4390      4388      4391
      4388      4391      4392      4388      4391      4393      4388      4391      4394
      4392      4391      4393      4392      4391      4394      4393      4391      4394
      4391      4394      4395      4391      4394      4396      4391      4394      4397
      4395      4394      4396      4395      4394      4397      4396      4394      4397
      4394      4397      4398      4394      4397      4399      4394      4397      4400
      4398      4397      4399      4398      4397      4400      4399      4397      4400
      4397      4400      4401      4397      4400      4402      4397      4400      4403
      4401      4400      4402      4401      4400      4403      4402      4400      4403
      4405      4404      4406      4405      4404      4407      4405      4404      4408
      4406      4404      4407      4406      4404      4408      4407      4404      4408
      4404      4408      4409      4404      4408      4410      4404      4408      4411
      4409      4408      4410      4409      4408      4411      4410      4408      4411
      4408      4411      4412      4408      4411      4413      4408      4411      4418
      4412      4411      4413      4412      4411      4418      4413      4411      4418
      4415      4414      4416      4415      4414      4417      4415      4414      4418
      4416      4414      4417      4416      4414      4418      4417      4414      4418
      4414      4417      4419      4411      4418      4414      4417      4419      4420
      4417      4419      4421      4417      4419      4422      4420      4419      4421
      4420      4419      4422      4421      4419      4422      4419      4422      4423
      4419      4422      4424      4419      4422      4430      4423      4422      4424
      4423      4422      4430      4424      4422      4430      4422      4424      4425
      4424      4425      4426      4424      4425      4427      4426      4425      4427
      4425      4427      4428      4425      4427      4429      4425      4427      4439
      4428      4427      4429      4428      4427      4439      4429      4427      4439
      4422      4430      4431      4422      4430      4432      4422      4430      4433
      4431      4430      4432      4431      4430      4433      4432      4430      4433
      4430      4433      4434      4433      4434      4435      4433      4434      4436
      4435      4434      4436      4434      4436      4437      4434      4436      4438
      4434      4436      4480      4437      4436      4438      4437      4436      4480
      4438      4436      4480      4427      4439      4440      4427      4439      4441
      4427      4439      4442      4440      4439      4441      4440      4439      4442
      4441      4439      4442      4439      4442      4443      4439      4442      4444
      4439      4442      4445      4443      4442      4444      4443      4442      4445
      4444      4442      4445      4442      4445      4446      4442      4445      4447
      4442      4445      4448      4446      4445      4447      4446      4445      4448
      4447      4445      4448      4445      4448      4449      4445      4448      4450
      4445      4448      4451      4449      4448      4450      4449      4448      4451
      4450      4448      4451      4448      4451      4452      4448      4451      4453
      4448      4451      4454      4452      4451      4453      4452      4451      4454
      4453      4451      4454      4451      4454      4455      4451      4454      4456
      4451      4454      4457      4455      4454      4456      4455      4454      4457
      4456      4454      4457      4454      4457      4458      4454      4457      4459
      4458      4457      4459      4457      4459      4460      4457      4459      4461
      4460      4459      4461      4459      4461      4462      4459      4461      4463
      4459      4461      4464      4462      4461      4463      4462      4461      4464
      4463      4461      4464      4461      4464      4465      4461      4464      4466
      4461      4464      4467      4465      4464      4466      4465      4464      4467
      4466      4464      4467      4464      4467      4468      4464      4467      4469
      4464      4467      4470      4468      4467      4469      4468      4467      4470
      4469      4467      4470      4467      4470      4471      4467      4470      4472
      4467      4470      4473      4471      4470      4472      4471      4470      4473
      4472      4470      4473      4470      4473      4474      4470      4473      4475
      4470      4473      4476      4474      4473      4475      4474      4473      4476
      4475      4473      4476      4473      4476      4477      4473      4476      4478
      4473      4476      4479      4477      4476      4478      4477      4476      4479
      4478      4476      4479      4436      4480      4481      4436      4480      4482
      4436      4480      4483      4481      4480      4482      4481      4480      4483
      4482      4480      4483      4480      4483      4484      4480      4483      4485
      4480      4483      4486      4484      4483      4485      4484      4483      4486
      4485      4483      4486      4483      4486      4487      4483      4486      4488
      4483      4486      4489      4487      4486      4488      4487      4486      4489
      4488      4486      4489      4486      4489      4490      4486      4489      4491
      4486      4489      4492      4490      4489      4491      4490      4489      4492
      4491      4489      4492      4489      4492      4493      4489      4492      4494
      4489      4492      4495      4493      4492      4494      4493      4492      4495
      4494      4492      4495      4492      4495      4496      4492      4495      4497
      4492      4495      4498      4496      4495      4497      4496      4495      4498
      4497      4495      4498      4495      4498      4499      4495      4498      4500
      4499      4498      4500      4498      4500      4501      4498      4500      4502
      4501      4500      4502      4500      4502      4503      4500      4502      4504
      4500      4502      4505      4503      4502      4504      4503      4502      4505
      4504      4502      4505      4502      4505      4506      4502      4505      4507
      4502      4505      4508      4506      4505      4507      4506      4505      4508
      4507      4505      4508      4505      4508      4509      4505      4508      4510
      4505      4508      4511      4509      4508      4510      4509      4508      4511
      4510      4508      4511      4508      4511      4512      4508      4511      4513
      4508      4511      4514      4512      4511      4513      4512      4511      4514
      4513      4511      4514      4511      4514      4515      4511      4514      4516
      4511      4514      4517      4515      4514      4516      4515      4514      4517
      4516      4514      4517      4514      4517      4518      4514      4517      4519
      4514      4517      4520      4518      4517      4519      4518      4517      4520
      4519      4517      4520      4517      4520      4521      4517      4520      4522
      4517      4520      4523      4521      4520      4522      4521      4520      4523
      4522      4520      4523      4520      4523      4524      4520      4523      4525
      4520      4523      4526      4524      4523      4525      4524      4523      4526
      4525      4523      4526      4528      4527      4529      4528      4527      4530
      4528      4527      4531      4529      4527      4530      4529      4527      4531
      4530      4527      4531      4527      4531      4532      4527      4531      4533
      4527      4531      4534      4532      4531      4533      4532      4531      4534
      4533      4531      4534      4531      4534      4535      4531      4534      4536
      4531      4534      4541      4535      4534      4536      4535      4534      4541
      4536      4534      4541      4538      4537      4539      4538      4537      4540
      4538      4537      4541      4539      4537      4540      4539      4537      4541
      4540      4537      4541      4537      4540      4542      4534      4541      4537
      4540      4542      4543      4540      4542      4544      4540      4542      4545
      4543      4542      4544      4543      4542      4545      4544      4542      4545
      4542      4545      4546      4542      4545      4547      4542      4545      4553
      4546      4545      4547      4546      4545      4553      4547      4545      4553
      4545      4547      4548      4547      4548      4549      4547      4548      4550
      4549      4548      4550      4548      4550      4551      4548      4550      4552
      4548      4550      4562      4551      4550      4552      4551      4550      4562
      4552      4550      4562      4545      4553      4554      4545      4553      4555
      4545      4553      4556      4554      4553      4555      4554      4553      4556
      4555      4553      4556      4553      4556      4557      4556      4557      4558
      4556      4557      4559      4558      4557      4559      4557      4559      4560
      4557      4559      4561      4557      4559      4606      4560      4559      4561
      4560      4559      4606      4561      4559      4606      4550      4562      4563
      4550      4562      4564      4550      4562      4565      4563      4562      4564
      4563      4562      4565      4564      4562      4565      4562      4565      4566
      4562      4565      4567      4562      4565      4568      4566      4565      4567
      4566      4565      4568      4567      4565      4568      4565      4568      4569
      4565      4568      4570      4565      4568      4571      4569      4568      4570
      4569      4568      4571      4570      4568      4571      4568      4571      4572
      4568      4571      4573      4568      4571      4574      4572      4571      4573
      4572      4571      4574      4573      4571      4574      4571      4574      4575
      4571      4574      4576      4571      4574      4577      4575      4574      4576
      4575      4574      4577      4576      4574      4577      4574      4577      4578
      4574      4577      4579      4574      4577      4580      4578      4577      4579
      4578      4577      4580      4579      4577      4580      4577      4580      4581
      4577      4580      4582      4577      4580      4585      4581      4580      4582
      4581      4580      4585      4582      4580      4585      4580      4582      4583
      4580      4582      4584      4580      4582      4585      4583      4582      4584
      4583      4582      4585      4584      4582      4585      4580      4585      4582
      4580      4585      4586      4580      4585      4587      4582      4585      4586
      4582      4585      4587      4586      4585      4587      4585      4587      4588
      4585      4587      4589      4585      4587      4590      4588      4587      4589
      4588      4587      4590      4589      4587      4590      4587      4590      4591
      4587      4590      4592      4587      4590      4593      4591      4590      4592
      4591      4590      4593      4592      4590      4593      4590      4593      4594
      4590      4593      4595      4590      4593      4596      4594      4593      4595
      4594      4593      4596      4595      4593      4596      4593      4596      4597
      4593      4596      4598      4593      4596      4599      4597      4596      4598
      4597      4596      4599      4598      4596      4599      4596      4599      4600
      4596      4599      4601      4596      4599      4602      4600      4599      4601
      4600      4599      4602      4601      4599      4602      4599      4602      4603
      4599      4602      4604      4599      4602      4605      4603      4602      4604
      4603      4602      4605      4604      4602      4605      4559      4606      4607
      4559      4606      4608      4559      4606      4609      4607      4606      4608
      4607      4606      4609      4608      4606      4609      4606      4609      4610
      4606      4609      4611      4606      4609      4612      4610      4609      4611
      4610      4609      4612      4611      4609      4612      4609      4612      4613
      4609      4612      4614      4609      4612      4615      4613      4612      4614
      4613      4612      4615      4614      4612      4615      4612      4615      4616
      4612      4615      4617      4612      4615      4618      4616      4615      4617
      4616      4615      4618      4617      4615      4618      4615      4618      4619
      4615      4618      4620      4615      4618      4621      4619      4618      4620
      4619      4618      4621      4620      4618      4621      4618      4621      4622
      4618      4621      4623      4618      4621      4624      4622      4621      4623
      4622      4621      4624      4623      4621      4624      4621      4624      4625
      4621      4624      4626      4621      4624      4627      4625      4624      4626
      4625      4624      4627      4626      4624      4627      4624      4627      4628
      4624      4627      4629      4624      4627      4630      4628      4627      4629
      4628      4627      4630      4629      4627      4630      4627      4630      4631
      4627      4630      4632      4627      4630      4633      4631      4630      4632
      4631      4630      4633      4632      4630      4633      4630      4633      4634
      4630      4633      4635      4630      4633      4636      4634      4633      4635
      4634      4633      4636      4635      4633      4636      4633      4636      4637
      4633      4636      4638      4633      4636      4639      4637      4636      4638
      4637      4636      4639      4638      4636      4639      4636      4639      4640
      4636      4639      4641      4636      4639      4642      4640      4639      4641
      4640      4639      4642      4641      4639      4642      4639      4642      4643
      4639      4642      4644      4639      4642      4645      4643      4642      4644
      4643      4642      4645      4644      4642      4645      4642      4645      4646
      4642      4645      4647      4642      4645      4648      4646      4645      4647
      4646      4645      4648      4647      4645      4648      4650      4649      4651
      4650      4649      4652      4650      4649      4653      4651      4649      4652
      4651      4649      4653      4652      4649      4653      4649      4653      4654
      4649      4653      4655      4649      4653      4656      4654      4653      4655
      4654      4653      4656      4655      4653      4656      4653      4656      4657
      4653      4656      4658      4653      4656      4663      4657      4656      4658
      4657      4656      4663      4658      4656      4663      4660      4659      4661
      4660      4659      4662      4660      4659      4663      4661      4659      4662
      4661      4659      4663      4662      4659      4663      4659      4662      4664
      4656      4663      4659      4662      4664      4665      4662      4664      4666
      4662      4664      4667      4665      4664      4666      4665      4664      4667
      4666      4664      4667      4664      4667      4668      4664      4667      4669
      4664      4667      4675      4668      4667      4669      4668      4667      4675
      4669      4667      4675      4667      4669      4670      4669      4670      4671
      4669      4670      4672      4671      4670      4672      4670      4672      4673
      4670      4672      4674      4670      4672      4684      4673      4672      4674
      4673      4672      4684      4674      4672      4684      4667      4675      4676
      4667      4675      4677      4667      4675      4678      4676      4675      4677
      4676      4675      4678      4677      4675      4678      4675      4678      4679
      4678      4679      4680      4678      4679      4681      4680      4679      4681
      4679      4681      4682      4679      4681      4683      4679      4681      4728
      4682      4681      4683      4682      4681      4728      4683      4681      4728
      4672      4684      4685      4672      4684      4686      4672      4684      4687
      4685      4684      4686      4685      4684      4687      4686      4684      4687
      4684      4687      4688      4684      4687      4689      4684      4687      4690
      4688      4687      4689      4688      4687      4690      4689      4687      4690
      4687      4690      4691      4687      4690      4692      4687      4690      4693
      4691      4690      4692      4691      4690      4693      4692      4690      4693
      4690      4693      4694      4690      4693      4695      4690      4693      4696
      4694      4693      4695      4694      4693      4696      4695      4693      4696
      4693      4696      4697      4693      4696      4698      4693      4696      4699
      4697      4696      4698      4697      4696      4699      4698      4696      4699
      4696      4699      4700      4696      4699      4701      4696      4699      4702
      4700      4699      4701      4700      4699      4702      4701      4699      4702
      4699      4702      4703      4699      4702      4704      4699      4702      4707
      4703      4702      4704      4703      4702      4707      4704      4702      4707
      4702      4704      4705      4702      4704      4706      4702      4704      4707
      4705      4704      4706      4705      4704      4707      4706      4704      4707
      4702      4707      4704      4702      4707      4708      4702      4707      4709
      4704      4707      4708      4704      4707      4709      4708      4707      4709
      4707      4709      4710      4707      4709      4711      4707      4709      4712
      4710      4709      4711      4710      4709      4712      4711      4709      4712
      4709      4712      4713      4709      4712      4714      4709      4712      4715
      4713      4712      4714      4713      4712      4715      4714      4712      4715
      4712      4715      4716      4712      4715      4717      4712      4715      4718
      4716      4715      4717      4716      4715      4718      4717      4715      4718
      4715      4718      4719      4715      4718      4720      4715      4718      4721
      4719      4718      4720      4719      4718      4721      4720      4718      4721
      4718      4721      4722      4718      4721      4723      4718      4721      4724
      4722      4721      4723      4722      4721      4724      4723      4721      4724
      4721      4724      4725      4721      4724      4726      4721      4724      4727
      4725      4724      4726      4725      4724      4727      4726      4724      4727
      4681      4728      4729      4681      4728      4730      4681      4728      4731
      4729      4728      4730      4729      4728      4731      4730      4728      4731
      4728      4731      4732      4728      4731      4733      4728      4731      4734
      4732      4731      4733      4732      4731      4734      4733      4731      4734
      4731      4734      4735      4731      4734      4736      4731      4734      4737
      4735      4734      4736      4735      4734      4737      4736      4734      4737
      4734      4737      4738      4734      4737      4739      4734      4737      4740
      4738      4737      4739      4738      4737      4740      4739      4737      4740
      4737      4740      4741      4737      4740      4742      4737      4740      4743
      4741      4740      4742      4741      4740      4743      4742      4740      4743
      4740      4743      4744      4740      4743      4745      4740      4743      4746
      4744      4743      4745      4744      4743      4746      4745      4743      4746
      4743      4746      4747      4743      4746      4748      4743      4746      4749
      4747      4746      4748      4747      4746      4749      4748      4746      4749
      4746      4749      4750      4746      4749      4751      4746      4749      4752
      4750      4749      4751      4750      4749      4752      4751      4749      4752
      4749      4752      4753      4749      4752      4754      4749      4752      4755
      4753      4752      4754      4753      4752      4755      4754      4752      4755
      4752      4755      4756      4752      4755      4757      4752      4755      4758
      4756      4755      4757      4756      4755      4758      4757      4755      4758
      4755      4758      4759      4755      4758      4760      4755      4758      4761
      4759      4758      4760      4759      4758      4761      4760      4758      4761
      4758      4761      4762      4758      4761      4763      4758      4761      4764
      4762      4761      4763      4762      4761      4764      4763      4761      4764
      4761      4764      4765      4761      4764      4766      4761      4764      4767
      4765      4764      4766      4765      4764      4767      4766      4764      4767
      4764      4767      4768      4764      4767      4769      4764      4767      4770
      4768      4767      4769      4768      4767      4770      4769      4767      4770
      4772      4771      4773      4772      4771      4774      4772      4771      4776
      4773      4771      4774      4773      4771      4776      4774      4771      4776
      4771      4774      4775      4771      4776      4777      4771      4776      4778
      4771      4776      4780      4777      4776      4778      4777      4776      4780
      4778      4776      4780      4776      4778      4779      4776      4780      4781
      4776      4780      4782      4776      4780      4787      4781      4780      4782
      4781      4780      4787      4782      4780      4787      4784      4783      4785
      4784      4783      4786      4784      4783      4787      4785      4783      4786
      4785      4783      4787      4786      4783      4787      4783      4786      4788
      4780      4787      4783      4786      4788      4789      4786      4788      4790
      4786      4788      4791      4789      4788      4790      4789      4788      4791
      4790      4788      4791      4788      4791      4792      4788      4791      4793
      4788      4791      4799      4792      4791      4793      4792      4791      4799
      4793      4791      4799      4791      4793      4794      4793      4794      4795
      4793      4794      4796      4795      4794      4796      4794      4796      4797
      4794      4796      4798      4794      4796      4808      4797      4796      4798
      4797      4796      4808      4798      4796      4808      4791      4799      4800
      4791      4799      4801      4791      4799      4802      4800      4799      4801
      4800      4799      4802      4801      4799      4802      4799      4802      4803
      4802      4803      4804      4802      4803      4805      4804      4803      4805
      4803      4805      4806      4803      4805      4807      4803      4805      4852
      4806      4805      4807      4806      4805      4852      4807      4805      4852
      4796      4808      4809      4796      4808      4810      4796      4808      4811
      4809      4808      4810      4809      4808      4811      4810      4808      4811
      4808      4811      4812      4808      4811      4813      4808      4811      4814
      4812      4811      4813      4812      4811      4814      4813      4811      4814
      4811      4814      4815      4811      4814      4816      4811      4814      4817
      4815      4814      4816      4815      4814      4817      4816      4814      4817
      4814      4817      4818      4814      4817      4819      4814      4817      4820
      4818      4817      4819      4818      4817      4820      4819      4817      4820
      4817      4820      4821      4817      4820      4822      4817      4820      4823
      4821      4820      4822      4821      4820      4823      4822      4820      4823
      4820      4823      4824      4820      4823      4825      4820      4823      4826
      4824      4823      4825      4824      4823      4826      4825      4823      4826
      4823      4826      4827      4823      4826      4828      4823      4826      4831
      4827      4826      4828      4827      4826      4831      4828      4826      4831
      4826      4828      4829      4826      4828      4830      4826      4828      4831
      4829      4828      4830      4829      4828      4831      4830      4828      4831
      4826      4831      4828      4826      4831      4832      4826      4831      4833
      4828      4831      4832      4828      4831      4833      4832      4831      4833
      4831      4833      4834      4831      4833      4835      4831      4833      4836
      4834      4833      4835      4834      4833      4836      4835      4833      4836
      4833      4836      4837      4833      4836      4838      4833      4836      4839
      4837      4836      4838      4837      4836      4839      4838      4836      4839
      4836      4839      4840      4836      4839      4841      4836      4839      4842
      4840      4839      4841      4840      4839      4842      4841      4839      4842
      4839      4842      4843      4839      4842      4844      4839      4842      4845
      4843      4842      4844      4843      4842      4845      4844      4842      4845
      4842      4845      4846      4842      4845      4847      4842      4845      4848
      4846      4845      4847      4846      4845      4848      4847      4845      4848
      4845      4848      4849      4845      4848      4850      4845      4848      4851
      4849      4848      4850      4849      4848      4851      4850      4848      4851
      4805      4852      4853      4805      4852      4854      4805      4852      4855
      4853      4852      4854      4853      4852      4855      4854      4852      4855
      4852      4855      4856      4852      4855      4857      4852      4855      4858
      4856      4855      4857      4856      4855      4858      4857      4855      4858
      4855      4858      4859      4855      4858      4860      4855      4858      4861
      4859      4858      4860      4859      4858      4861      4860      4858      4861
      4858      4861      4862      4858      4861      4863      4858      4861      4864
      4862      4861      4863      4862      4861      4864      4863      4861      4864
      4861      4864      4865      4861      4864      4866      4861      4864      4867
      4865      4864      4866      4865      4864      4867      4866      4864      4867
      4864      4867      4868      4864      4867      4869      4864      4867      4870
      4868      4867      4869      4868      4867      4870      4869      4867      4870
      4867      4870      4871      4867      4870      4872      4867      4870      4873
      4871      4870      4872      4871      4870      4873      4872      4870      4873
      4870      4873      4874      4870      4873      4875      4870      4873      4876
      4874      4873      4875      4874      4873      4876      4875      4873      4876
      4873      4876      4877      4873      4876      4878      4873      4876      4879
      4877      4876      4878      4877      4876      4879      4878      4876      4879
      4876      4879      4880      4876      4879      4881      4876      4879      4882
      4880      4879      4881      4880      4879      4882      4881      4879      4882
      4879      4882      4883      4879      4882      4884      4879      4882      4885
      4883      4882      4884      4883      4882      4885      4884      4882      4885
      4882      4885      4886      4882      4885      4887      4882      4885      4888
      4886      4885      4887      4886      4885      4888      4887      4885      4888
      4885      4888      4889      4885      4888      4890      4885      4888      4891
      4889      4888      4890      4889      4888      4891      4890      4888      4891
      4888      4891      4892      4888      4891      4893      4888      4891      4894
      4892      4891      4893      4892      4891      4894      4893      4891      4894
      4896      4895      4897      4896      4895      4898      4896      4895      4899
      4897      4895      4898      4897      4895      4899      4898      4895      4899
      4895      4899      4900      4895      4899      4901      4895      4899      4902
      4900      4899      4901      4900      4899      4902      4901      4899      4902
      4899      4902      4903      4899      4902      4904      4899      4902      4909
      4903      4902      4904      4903      4902      4909      4904      4902      4909
      4906      4905      4907      4906      4905      4908      4906      4905      4909
      4907      4905      4908      4907      4905      4909      4908      4905      4909
      4905      4908      4910      4902      4909      4905      4908      4910      4911
      4908      4910      4912      4908      4910      4913      4911      4910      4912
      4911      4910      4913      4912      4910      4913      4910      4913      4914
      4910      4913      4915      4910      4913      4921      4914      4913      4915
      4914      4913      4921      4915      4913      4921      4913      4915      4916
      4915      4916      4917      4915      4916      4918      4917      4916      4918
      4916      4918      4919      4916      4918      4920      4916      4918      4930
      4919      4918      4920      4919      4918      4930      4920      4918      4930
      4913      4921      4922      4913      4921      4923      4913      4921      4924
      4922      4921      4923      4922      4921      4924      4923      4921      4924
      4921      4924      4925      4924      4925      4926      4924      4925      4927
      4926      4925      4927      4925      4927      4928      4925      4927      4929
      4925      4927      4974      4928      4927      4929      4928      4927      4974
      4929      4927      4974      4918      4930      4931      4918      4930      4932
      4918      4930      4933      4931      4930      4932      4931      4930      4933
      4932      4930      4933      4930      4933      4934      4930      4933      4935
      4930      4933      4936      4934      4933      4935      4934      4933      4936
      4935      4933      4936      4933      4936      4937      4933      4936      4938
      4933      4936      4939      4937      4936      4938      4937      4936      4939
      4938      4936      4939      4936      4939      4940      4936      4939      4941
      4936      4939      4942      4940      4939      4941      4940      4939      4942
      4941      4939      4942      4939      4942      4943      4939      4942      4944
      4939      4942      4945      4943      4942      4944      4943      4942      4945
      4944      4942      4945      4942      4945      4946      4942      4945      4947
      4942      4945      4948      4946      4945      4947      4946      4945      4948
      4947      4945      4948      4945      4948      4949      4945      4948      4950
      4945      4948      4953      4949      4948      4950      4949      4948      4953
      4950      4948      4953      4948      4950      4951      4948      4950      4952
      4948      4950      4953      4951      4950      4952      4951      4950      4953
      4952      4950      4953      4948      4953      4950      4948      4953      4954
      4948      4953      4955      4950      4953      4954      4950      4953      4955
      4954      4953      4955      4953      4955      4956      4953      4955      4957
      4953      4955      4958      4956      4955      4957      4956      4955      4958
      4957      4955      4958      4955      4958      4959      4955      4958      4960
      4955      4958      4961      4959      4958      4960      4959      4958      4961
      4960      4958      4961      4958      4961      4962      4958      4961      4963
      4958      4961      4964      4962      4961      4963      4962      4961      4964
      4963      4961      4964      4961      4964      4965      4961      4964      4966
      4961      4964      4967      4965      4964      4966      4965      4964      4967
      4966      4964      4967      4964      4967      4968      4964      4967      4969
      4964      4967      4970      4968      4967      4969      4968      4967      4970
      4969      4967      4970      4967      4970      4971      4967      4970      4972
      4967      4970      4973      4971      4970      4972      4971      4970      4973
      4972      4970      4973      4927      4974      4975      4927      4974      4976
      4927      4974      4977      4975      4974      4976      4975      4974      4977
      4976      4974      4977      4974      4977      4978      4974      4977      4979
      4974      4977      4980      4978      4977      4979      4978      4977      4980
      4979      4977      4980      4977      4980      4981      4977      4980      4982
      4977      4980      4983      4981      4980      4982      4981      4980      4983
      4982      4980      4983      4980      4983      4984      4980      4983      4985
      4980      4983      4986      4984      4983      4985      4984      4983      4986
      4985      4983      4986      4983      4986      4987      4983      4986      4988
      4983      4986      4989      4987      4986      4988      4987      4986      4989
      4988      4986      4989      4986      4989      4990      4986      4989      4991
      4986      4989      4992      4990      4989      4991      4990      4989      4992
      4991      4989      4992      4989      4992      4993      4989      4992      4994
      4989      4992      4995      4993      4992      4994      4993      4992      4995
      4994      4992      4995      4992      4995      4996      4992      4995      4997
      4992      4995      4998      4996      4995      4997      4996      4995      4998
      4997      4995      4998      4995      4998      4999      4995      4998      5000
      4995      4998      5001      4999      4998      5000      4999      4998      5001
      5000      4998      5001      4998      5001      5002      4998      5001      5003
      4998      5001      5004      5002      5001      5003      5002      5001      5004
      5003      5001      5004      5001      5004      5005      5001      5004      5006
      5001      5004      5007      5005      5004      5006      5005      5004      5007
      5006      5004      5007      5004      5007      5008      5004      5007      5009
      5004      5007      5010      5008      5007      5009      5008      5007      5010
      5009      5007      5010      5007      5010      5011      5007      5010      5012
      5007      5010      5013      5011      5010      5012      5011      5010      5013
      5012      5010      5013      5015      5014      5016      5015      5014      5017
      5015      5014      5018      5016      5014      5017      5016      5014      5018
      5017      5014      5018      5014      5018      5019      5014      5018      5020
      5014      5018      5021      5019      5018      5020      5019      5018      5021
      5020      5018      5021      5018      5021      5022      5018      5021      5023
      5018      5021      5028      5022      5021      5023      5022      5021      5028
      5023      5021      5028      5025      5024      5026      5025      5024      5027
      5025      5024      5028      5026      5024      5027      5026      5024      5028
      5027      5024      5028      5024      5027      5029      5021      5028      5024
      5027      5029      5030      5027      5029      5031      5027      5029      5032
      5030      5029      5031      5030      5029      5032      5031      5029      5032
      5029      5032      5033      5029      5032      5034      5029      5032      5040
      5033      5032      5034      5033      5032      5040      5034      5032      5040
      5032      5034      5035      5034      5035      5036      5034      5035      5037
      5036      5035      5037      5035      5037      5038      5035      5037      5039
      5035      5037      5049      5038      5037      5039      5038      5037      5049
      5039      5037      5049      5032      5040      5041      5032      5040      5042
      5032      5040      5043      5041      5040      5042      5041      5040      5043
      5042      5040      5043      5040      5043      5044      5043      5044      5045
      5043      5044      5046      5045      5044      5046      5044      5046      5047
      5044      5046      5048      5044      5046      5093      5047      5046      5048
      5047      5046      5093      5048      5046      5093      5037      5049      5050
      5037      5049      5051      5037      5049      5052      5050      5049      5051
      5050      5049      5052      5051      5049      5052      5049      5052      5053
      5049      5052      5054      5049      5052      5055      5053      5052      5054
      5053      5052      5055      5054      5052      5055      5052      5055      5056
      5052      5055      5057      5052      5055      5058      5056      5055      5057
      5056      5055      5058      5057      5055      5058      5055      5058      5059
      5055      5058      5060      5055      5058      5061      5059      5058      5060
      5059      5058      5061      5060      5058      5061      5058      5061      5062
      5058      5061      5063      5058      5061      5064      5062      5061      5063
      5062      5061      5064      5063      5061      5064      5061      5064      5065
      5061      5064      5066      5061      5064      5067      5065      5064      5066
      5065      5064      5067      5066      5064      5067      5064      5067      5068
      5064      5067      5069      5064      5067      5072      5068      5067      5069
      5068      5067      5072      5069      5067      5072      5067      5069      5070
      5067      5069      5071      5067      5069      5072      5070      5069      5071
      5070      5069      5072      5071      5069      5072      5067      5072      5069
      5067      5072      5073      5067      5072      5074      5069      5072      5073
      5069      5072      5074      5073      5072      5074      5072      5074      5075
      5072      5074      5076      5072      5074      5077      5075      5074      5076
      5075      5074      5077      5076      5074      5077      5074      5077      5078
      5074      5077      5079      5074      5077      5080      5078      5077      5079
      5078      5077      5080      5079      5077      5080      5077      5080      5081
      5077      5080      5082      5077      5080      5083      5081      5080      5082
      5081      5080      5083      5082      5080      5083      5080      5083      5084
      5080      5083      5085      5080      5083      5086      5084      5083      5085
      5084      5083      5086      5085      5083      5086      5083      5086      5087
      5083      5086      5088      5083      5086      5089      5087      5086      5088
      5087      5086      5089      5088      5086      5089      5086      5089      5090
      5086      5089      5091      5086      5089      5092      5090      5089      5091
      5090      5089      5092      5091      5089      5092      5046      5093      5094
      5046      5093      5095      5046      5093      5096      5094      5093      5095
      5094      5093      5096      5095      5093      5096      5093      5096      5097
      5093      5096      5098      5093      5096      5099      5097      5096      5098
      5097      5096      5099      5098      5096      5099      5096      5099      5100
      5096      5099      5101      5096      5099      5102      5100      5099      5101
      5100      5099      5102      5101      5099      5102      5099      5102      5103
      5099      5102      5104      5099      5102      5105      5103      5102      5104
      5103      5102      5105      5104      5102      5105      5102      5105      5106
      5102      5105      5107      5102      5105      5108      5106      5105      5107
      5106      5105      5108      5107      5105      5108      5105      5108      5109
      5105      5108      5110      5105      5108      5111      5109      5108      5110
      5109      5108      5111      5110      5108      5111      5108      5111      5112
      5108      5111      5113      5108      5111      5114      5112      5111      5113
      5112      5111      5114      5113      5111      5114      5111      5114      5115
      5111      5114      5116      5111      5114      5117      5115      5114      5116
      5115      5114      5117      5116      5114      5117      5114      5117      5118
      5114      5117      5119      5114      5117      5120      5118      5117      5119
      5118      5117      5120      5119      5117      5120      5117      5120      5121
      5117      5120      5122      5117      5120      5123      5121      5120      5122
      5121      5120      5123      5122      5120      5123      5120      5123      5124
      5120      5123      5125      5120      5123      5126      5124      5123      5125
      5124      5123      5126      5125      5123      5126      5123      5126      5127
      5123      5126      5128      5123      5126      5129      5127      5126      5128
      5127      5126      5129      5128      5126      5129      5126      5129      5130
      5126      5129      5131      5126      5129      5132      5130      5129      5131
      5130      5129      5132      5131      5129      5132      5129      5132      5133
      5129      5132      5134      5129      5132      5135      5133      5132      5134
      5133      5132      5135      5134      5132      5135      5137      5136      5138
      5137      5136      5139      5137      5136      5140      5138      5136      5139
      5138      5136      5140      5139      5136      5140      5136      5140      5141
      5136      5140      5142      5136      5140      5143      5141      5140      5142
      5141      5140      5143      5142      5140      5143      5140      5143      5144
      5140      5143      5145      5140      5143      5150      5144      5143      5145
      5144      5143      5150      5145      5143      5150      5147      5146      5148
      5147      5146      5149      5147      5146      5150      5148      5146      5149
      5148      5146      5150      5149      5146      5150      5146      5149      5151
      5143      5150      5146      5149      5151      5152      5149      5151      5153
      5149      5151      5154      5152      5151      5153      5152      5151      5154
      5153      5151      5154      5151      5154      5155      5151      5154      5156
      5151      5154      5162      5155      5154      5156      5155      5154      5162
      5156      5154      5162      5154      5156      5157      5156      5157      5158
      5156      5157      5159      5158      5157      5159      5157      5159      5160
      5157      5159      5161      5157      5159      5171      5160      5159      5161
      5160      5159      5171      5161      5159      5171      5154      5162      5163
      5154      5162      5164      5154      5162      5165      5163      5162      5164
      5163      5162      5165      5164      5162      5165      5162      5165      5166
      5165      5166      5167      5165      5166      5168      5167      5166      5168
      5166      5168      5169      5166      5168      5170      5166      5168      5215
      5169      5168      5170      5169      5168      5215      5170      5168      5215
      5159      5171      5172      5159      5171      5173      5159      5171      5174
      5172      5171      5173      5172      5171      5174      5173      5171      5174
      5171      5174      5175      5171      5174      5176      5171      5174      5177
      5175      5174      5176      5175      5174      5177      5176      5174      5177
      5174      5177      5178      5174      5177      5179      5174      5177      5180
      5178      5177      5179      5178      5177      5180      5179      5177      5180
      5177      5180      5181      5177      5180      5182      5177      5180      5183
      5181      5180      5182      5181      5180      5183      5182      5180      5183
      5180      5183      5184      5180      5183      5185      5180      5183      5186
      5184      5183      5185      5184      5183      5186      5185      5183      5186
      5183      5186      5187      5183      5186      5188      5183      5186      5189
      5187      5186      5188      5187      5186      5189      5188      5186      5189
      5186      5189      5190      5186      5189      5191      5186      5189      5194
      5190      5189      5191      5190      5189      5194      5191      5189      5194
      5189      5191      5192      5189      5191      5193      5189      5191      5194
      5192      5191      5193      5192      5191      5194      5193      5191      5194
      5189      5194      5191      5189      5194      5195      5189      5194      5196
      5191      5194      5195      5191      5194      5196      5195      5194      5196
      5194      5196      5197      5194      5196      5198      5194      5196      5199
      5197      5196      5198      5197      5196      5199      5198      5196      5199
      5196      5199      5200      5196      5199      5201      5196      5199      5202
      5200      5199      5201      5200      5199      5202      5201      5199      5202
      5199      5202      5203      5199      5202      5204      5199      5202      5205
      5203      5202      5204      5203      5202      5205      5204      5202      5205
      5202      5205      5206      5202      5205      5207      5202      5205      5208
      5206      5205      5207      5206      5205      5208      5207      5205      5208
      5205      5208      5209      5205      5208      5210      5205      5208      5211
      5209      5208      5210      5209      5208      5211      5210      5208      5211
      5208      5211      5212      5208      5211      5213      5208      5211      5214
      5212      5211      5213      5212      5211      5214      5213      5211      5214
      5168      5215      5216      5168      5215      5217      5168      5215      5218
      5216      5215      5217      5216      5215      5218      5217      5215      5218
      5215      5218      5219      5215      5218      5220      5215      5218      5221
      5219      5218      5220      5219      5218      5221      5220      5218      5221
      5218      5221      5222      5218      5221      5223      5218      5221      5224
      5222      5221      5223      5222      5221      5224      5223      5221      5224
      5221      5224      5225      5221      5224      5226      5221      5224      5227
      5225      5224      5226      5225      5224      5227      5226      5224      5227
      5224      5227      5228      5224      5227      5229      5224      5227      5230
      5228      5227      5229      5228      5227      5230      5229      5227      5230
      5227      5230      5231      5227      5230      5232      5227      5230      5233
      5231      5230      5232      5231      5230      5233      5232      5230      5233
      5230      5233      5234      5230      5233      5235      5230      5233      5236
      5234      5233      5235      5234      5233      5236      5235      5233      5236
      5233      5236      5237      5233      5236      5238      5233      5236      5239
      5237      5236      5238      5237      5236      5239      5238      5236      5239
      5236      5239      5240      5236      5239      5241      5236      5239      5242
      5240      5239      5241      5240      5239      5242      5241      5239      5242
      5239      5242      5243      5239      5242      5244      5239      5242      5245
      5243      5242      5244      5243      5242      5245      5244      5242      5245
      5242      5245      5246      5242      5245      5247      5242      5245      5248
      5246      5245      5247      5246      5245      5248      5247      5245      5248
      5245      5248      5249      5245      5248      5250      5245      5248      5251
      5249      5248      5250      5249      5248      5251      5250      5248      5251
      5248      5251      5252      5248      5251      5253      5248      5251      5254
      5252      5251      5253      5252      5251      5254      5253      5251      5254
      5256      5255      5257      5256      5255      5258      5256      5255      5259
      5257      5255      5258      5257      5255      5259      5258      5255      5259
      5255      5259      5260      5255      5259      5261      5255      5259      5262
      5260      5259      5261      5260      5259      5262      5261      5259      5262
      5259      5262      5263      5259      5262      5264      5259      5262      5269
      5263      5262      5264      5263      5262      5269      5264      5262      5269
      5266      5265      5267      5266      5265      5268      5266      5265      5269
      5267      5265      5268      5267      5265      5269      5268      5265      5269
      5265      5268      5270      5262      5269      5265      5268      5270      5271
      5268      5270      5272      5268      5270      5273      5271      5270      5272
      5271      5270      5273      5272      5270      5273      5270      5273      5274
      5270      5273      5275      5270      5273      5281      5274      5273      5275
      5274      5273      5281      5275      5273      5281      5273      5275      5276
      5275      5276      5277      5275      5276      5278      5277      5276      5278
      5276      5278      5279      5276      5278      5280      5276      5278      5290
      5279      5278      5280      5279      5278      5290      5280      5278      5290
      5273      5281      5282      5273      5281      5283      5273      5281      5284
      5282      5281      5283      5282      5281      5284      5283      5281      5284
      5281      5284      5285      5284      5285      5286      5284      5285      5287
      5286      5285      5287      5285      5287      5288      5285      5287      5289
      5285      5287      5334      5288      5287      5289      5288      5287      5334
      5289      5287      5334      5278      5290      5291      5278      5290      5292
      5278      5290      5293      5291      5290      5292      5291      5290      5293
      5292      5290      5293      5290      5293      5294      5290      5293      5295
      5290      5293      5296      5294      5293      5295      5294      5293      5296
      5295      5293      5296      5293      5296      5297      5293      5296      5298
      5293      5296      5299      5297      5296      5298      5297      5296      5299
      5298      5296      5299      5296      5299      5300      5296      5299      5301
      5296      5299      5302      5300      5299      5301      5300      5299      5302
      5301      5299      5302      5299      5302      5303      5299      5302      5304
      5299      5302      5305      5303      5302      5304      5303      5302      5305
      5304      5302      5305      5302      5305      5306      5302      5305      5307
      5302      5305      5308      5306      5305      5307      5306      5305      5308
      5307      5305      5308      5305      5308      5309      5305      5308      5310
      5305      5308      5313      5309      5308      5310      5309      5308      5313
      5310      5308      5313      5308      5310      5311      5308      5310      5312
      5308      5310      5313      5311      5310      5312      5311      5310      5313
      5312      5310      5313      5308      5313      5310      5308      5313      5314
      5308      5313      5315      5310      5313      5314      5310      5313      5315
      5314      5313      5315      5313      5315      5316      5313      5315      5317
      5313      5315      5318      5316      5315      5317      5316      5315      5318
      5317      5315      5318      5315      5318      5319      5315      5318      5320
      5315      5318      5321      5319      5318      5320      5319      5318      5321
      5320      5318      5321      5318      5321      5322      5318      5321      5323
      5318      5321      5324      5322      5321      5323      5322      5321      5324
      5323      5321      5324      5321      5324      5325      5321      5324      5326
      5321      5324      5327      5325      5324      5326      5325      5324      5327
      5326      5324      5327      5324      5327      5328      5324      5327      5329
      5324      5327      5330      5328      5327      5329      5328      5327      5330
      5329      5327      5330      5327      5330      5331      5327      5330      5332
      5327      5330      5333      5331      5330      5332      5331      5330      5333
      5332      5330      5333      5287      5334      5335      5287      5334      5336
      5287      5334      5337      5335      5334      5336      5335      5334      5337
      5336      5334      5337      5334      5337      5338      5334      5337      5339
      5334      5337      5340      5338      5337      5339      5338      5337      5340
      5339      5337      5340      5337      5340      5341      5337      5340      5342
      5337      5340      5343      5341      5340      5342      5341      5340      5343
      5342      5340      5343      5340      5343      5344      5340      5343      5345
      5340      5343      5346      5344      5343      5345      5344      5343      5346
      5345      5343      5346      5343      5346      5347      5343      5346      5348
      5343      5346      5349      5347      5346      5348      5347      5346      5349
      5348      5346      5349      5346      5349      5350      5346      5349      5351
      5346      5349      5352      5350      5349      5351      5350      5349      5352
      5351      5349      5352      5349      5352      5353      5349      5352      5354
      5349      5352      5355      5353      5352      5354      5353      5352      5355
      5354      5352      5355      5352      5355      5356      5352      5355      5357
      5352      5355      5358      5356      5355      5357      5356      5355      5358
      5357      5355      5358      5355      5358      5359      5355      5358      5360
      5355      5358      5361      5359      5358      5360      5359      5358      5361
      5360      5358      5361      5358      5361      5362      5358      5361      5363
      5358      5361      5364      5362      5361      5363      5362      5361      5364
      5363      5361      5364      5361      5364      5365      5361      5364      5366
      5361      5364      5367      5365      5364      5366      5365      5364      5367
      5366      5364      5367      5364      5367      5368      5364      5367      5369
      5364      5367      5370      5368      5367      5369      5368      5367      5370
      5369      5367      5370      5367      5370      5371      5367      5370      5372
      5367      5370      5373      5371      5370      5372      5371      5370      5373
      5372      5370      5373      5370      5373      5374      5370      5373      5375
      5370      5373      5376      5374      5373      5375      5374      5373      5376
      5375      5373      5376      5378      5377      5379      5378      5377      5380
      5378      5377      5381      5379      5377      5380      5379      5377      5381
      5380      5377      5381      5377      5381      5382      5377      5381      5383
      5377      5381      5384      5382      5381      5383      5382      5381      5384
      5383      5381      5384      5381      5384      5385      5381      5384      5386
      5381      5384      5391      5385      5384      5386      5385      5384      5391
      5386      5384      5391      5388      5387      5389      5388      5387      5390
      5388      5387      5391      5389      5387      5390      5389      5387      5391
      5390      5387      5391      5387      5390      5392      5384      5391      5387
      5390      5392      5393      5390      5392      5394      5390      5392      5395
      5393      5392      5394      5393      5392      5395      5394      5392      5395
      5392      5395      5396      5392      5395      5397      5392      5395      5403
      5396      5395      5397      5396      5395      5403      5397      5395      5403
      5395      5397      5398      5397      5398      5399      5397      5398      5400
      5399      5398      5400      5398      5400      5401      5398      5400      5402
      5398      5400      5412      5401      5400      5402      5401      5400      5412
      5402      5400      5412      5395      5403      5404      5395      5403      5405
      5395      5403      5406      5404      5403      5405      5404      5403      5406
      5405      5403      5406      5403      5406      5407      5406      5407      5408
      5406      5407      5409      5408      5407      5409      5407      5409      5410
      5407      5409      5411      5407      5409      5456      5410      5409      5411
      5410      5409      5456      5411      5409      5456      5400      5412      5413
      5400      5412      5414      5400      5412      5415      5413      5412      5414
      5413      5412      5415      5414      5412      5415      5412      5415      5416
      5412      5415      5417      5412      5415      5418      5416      5415      5417
      5416      5415      5418      5417      5415      5418      5415      5418      5419
      5415      5418      5420      5415      5418      5421      5419      5418      5420
      5419      5418      5421      5420      5418      5421      5418      5421      5422
      5418      5421      5423      5418      5421      5424      5422      5421      5423
      5422      5421      5424      5423      5421      5424      5421      5424      5425
      5421      5424      5426      5421      5424      5427      5425      5424      5426
      5425      5424      5427      5426      5424      5427      5424      5427      5428
      5424      5427      5429      5424      5427      5430      5428      5427      5429
      5428      5427      5430      5429      5427      5430      5427      5430      5431
      5427      5430      5432      5427      5430      5435      5431      5430      5432
      5431      5430      5435      5432      5430      5435      5430      5432      5433
      5430      5432      5434      5430      5432      5435      5433      5432      5434
      5433      5432      5435      5434      5432      5435      5430      5435      5432
      5430      5435      5436      5430      5435      5437      5432      5435      5436
      5432      5435      5437      5436      5435      5437      5435      5437      5438
      5435      5437      5439      5435      5437      5440      5438      5437      5439
      5438      5437      5440      5439      5437      5440      5437      5440      5441
      5437      5440      5442      5437      5440      5443      5441      5440      5442
      5441      5440      5443      5442      5440      5443      5440      5443      5444
      5440      5443      5445      5440      5443      5446      5444      5443      5445
      5444      5443      5446      5445      5443      5446      5443      5446      5447
      5443      5446      5448      5443      5446      5449      5447      5446      5448
      5447      5446      5449      5448      5446      5449      5446      5449      5450
      5446      5449      5451      5446      5449      5452      5450      5449      5451
      5450      5449      5452      5451      5449      5452      5449      5452      5453
      5449      5452      5454      5449      5452      5455      5453      5452      5454
      5453      5452      5455      5454      5452      5455      5409      5456      5457
      5409      5456      5458      5409      5456      5459      5457      5456      5458
      5457      5456      5459      5458      5456      5459      5456      5459      5460
      5456      5459      5461      5456      5459      5462      5460      5459      5461
      5460      5459      5462      5461      5459      5462      5459      5462      5463
      5459      5462      5464      5459      5462      5465      5463      5462      5464
      5463      5462      5465      5464      5462      5465      5462      5465      5466
      5462      5465      5467      5462      5465      5468      5466      5465      5467
      5466      5465      5468      5467      5465      5468      5465      5468      5469
      5465      5468      5470      5465      5468      5471      5469      5468      5470
      5469      5468      5471      5470      5468      5471      5468      5471      5472
      5468      5471      5473      5468      5471      5474      5472      5471      5473
      5472      5471      5474      5473      5471      5474      5471      5474      5475
      5471      5474      5476      5471      5474      5477      5475      5474      5476
      5475      5474      5477      5476      5474      5477      5474      5477      5478
      5474      5477      5479      5474      5477      5480      5478      5477      5479
      5478      5477      5480      5479      5477      5480      5477      5480      5481
      5477      5480      5482      5477      5480      5483      5481      5480      5482
      5481      5480      5483      5482      5480      5483      5480      5483      5484
      5480      5483      5485      5480      5483      5486      5484      5483      5485
      5484      5483      5486      5485      5483      5486      5483      5486      5487
      5483      5486      5488      5483      5486      5489      5487      5486      5488
      5487      5486      5489      5488      5486      5489      5486      5489      5490
      5486      5489      5491      5486      5489      5492      5490      5489      5491
      5490      5489      5492      5491      5489      5492      5489      5492      5493
      5489      5492      5494      5489      5492      5495      5493      5492      5494
      5493      5492      5495      5494      5492      5495      5492      5495      5496
      5492      5495      5497      5492      5495      5498      5496      5495      5497
      5496      5495      5498      5497      5495      5498      5500      5499      5501
      5500      5499      5502      5500      5499      5503      5501      5499      5502
      5501      5499      5503      5502      5499      5503      5499      5503      5504
      5499      5503      5505      5499      5503      5506      5504      5503      5505
      5504      5503      5506      5505      5503      5506      5503      5506      5507
      5503      5506      5508      5503      5506      5513      5507      5506      5508
      5507      5506      5513      5508      5506      5513      5510      5509      5511
      5510      5509      5512      5510      5509      5513      5511      5509      5512
      5511      5509      5513      5512      5509      5513      5509      5512      5514
      5506      5513      5509      5512      5514      5515      5512      5514      5516
      5512      5514      5517      5515      5514      5516      5515      5514      5517
      5516      5514      5517      5514      5517      5518      5514      5517      5519
      5514      5517      5525      5518      5517      5519      5518      5517      5525
      5519      5517      5525      5517      5519      5520      5519      5520      5521
      5519      5520      5522      5521      5520      5522      5520      5522      5523
      5520      5522      5524      5520      5522      5534      5523      5522      5524
      5523      5522      5534      5524      5522      5534      5517      5525      5526
      5517      5525      5527      5517      5525      5528      5526      5525      5527
      5526      5525      5528      5527      5525      5528      5525      5528      5529
      5528      5529      5530      5528      5529      5531      5530      5529      5531
      5529      5531      5532      5529      5531      5533      5529      5531      5578
      5532      5531      5533      5532      5531      5578      5533      5531      5578
      5522      5534      5535      5522      5534      5536      5522      5534      5537
      5535      5534      5536      5535      5534      5537      5536      5534      5537
      5534      5537      5538      5534      5537      5539      5534      5537      5540
      5538      5537      5539      5538      5537      5540      5539      5537      5540
      5537      5540      5541      5537      5540      5542      5537      5540      5543
      5541      5540      5542      5541      5540      5543      5542      5540      5543
      5540      5543      5544      5540      5543      5545      5540      5543      5546
      5544      5543      5545      5544      5543      5546      5545      5543      5546
      5543      5546      5547      5543      5546      5548      5543      5546      5549
      5547      5546      5548      5547      5546      5549      5548      5546      5549
      5546      5549      5550      5546      5549      5551      5546      5549      5552
      5550      5549      5551      5550      5549      5552      5551      5549      5552
      5549      5552      5553      5549      5552      5554      5549      5552      5557
      5553      5552      5554      5553      5552      5557      5554      5552      5557
      5552      5554      5555      5552      5554      5556      5552      5554      5557
      5555      5554      5556      5555      5554      5557      5556      5554      5557
      5552      5557      5554      5552      5557      5558      5552      5557      5559
      5554      5557      5558      5554      5557      5559      5558      5557      5559
      5557      5559      5560      5557      5559      5561      5557      5559      5562
      5560      5559      5561      5560      5559      5562      5561      5559      5562
      5559      5562      5563      5559      5562      5564      5559      5562      5565
      5563      5562      5564      5563      5562      5565      5564      5562      5565
      5562      5565      5566      5562      5565      5567      5562      5565      5568
      5566      5565      5567      5566      5565      5568      5567      5565      5568
      5565      5568      5569      5565      5568      5570      5565      5568      5571
      5569      5568      5570      5569      5568      5571      5570      5568      5571
      5568      5571      5572      5568      5571      5573      5568      5571      5574
      5572      5571      5573      5572      5571      5574      5573      5571      5574
      5571      5574      5575      5571      5574      5576      5571      5574      5577
      5575      5574      5576      5575      5574      5577      5576      5574      5577
      5531      5578      5579      5531      5578      5580      5531      5578      5581
      5579      5578      5580      5579      5578      5581      5580      5578      5581
      5578      5581      5582      5578      5581      5583      5578      5581      5584
      5582      5581      5583      5582      5581      5584      5583      5581      5584
      5581      5584      5585      5581      5584      5586      5581      5584      5587
      5585      5584      5586      5585      5584      5587      5586      5584      5587
      5584      5587      5588      5584      5587      5589      5584      5587      5590
      5588      5587      5589      5588      5587      5590      5589      5587      5590
      5587      5590      5591      5587      5590      5592      5587      5590      5593
      5591      5590      5592      5591      5590      5593      5592      5590      5593
      5590      5593      5594      5590      5593      5595      5590      5593      5596
      5594      5593      5595      5594      5593      5596      5595      5593      5596
      5593      5596      5597      5593      5596      5598      5593      5596      5599
      5597      5596      5598      5597      5596      5599      5598      5596      5599
      5596      5599      5600      5596      5599      5601      5596      5599      5602
      5600      5599      5601      5600      5599      5602      5601      5599      5602
      5599      5602      5603      5599      5602      5604      5599      5602      5605
      5603      5602      5604      5603      5602      5605      5604      5602      5605
      5602      5605      5606      5602      5605      5607      5602      5605      5608
      5606      5605      5607      5606      5605      5608      5607      5605      5608
      5605      5608      5609      5605      5608      5610      5605      5608      5611
      5609      5608      5610      5609      5608      5611      5610      5608      5611
      5608      5611      5612      5608      5611      5613      5608      5611      5614
      5612      5611      5613      5612      5611      5614      5613      5611      5614
      5611      5614      5615      5611      5614      5616      5611      5614      5617
      5615      5614      5616      5615      5614      5617      5616      5614      5617
      5614      5617      5618      5614      5617      5619      5614      5617      5620
      5618      5617      5619      5618      5617      5620      5619      5617      5620
      5622      5621      5623      5622      5621      5624      5622      5621      5626
      5623      5621      5624      5623      5621      5626      5624      5621      5626
      5621      5624      5625      5621      5626      5627      5621      5626      5628
      5621      5626      5630      5627      5626      5628      5627      5626      5630
      5628      5626      5630      5626      5628      5629      5626      5630      5631
      5626      5630      5632      5626      5630      5637      5631      5630      5632
      5631      5630      5637      5632      5630      5637      5634      5633      5635
      5634      5633      5636      5634      5633      5637      5635      5633      5636
      5635      5633      5637      5636      5633      5637      5633      5636      5638
      5630      5637      5633      5636      5638      5639      5636      5638      5640
      5636      5638      5641      5639      5638      5640      5639      5638      5641
      5640      5638      5641      5638      5641      5642      5638      5641      5643
      5638      5641      5649      5642      5641      5643      5642      5641      5649
      5643      5641      5649      5641      5643      5644      5643      5644      5645
      5643      5644      5646      5645      5644      5646      5644      5646      5647
      5644      5646      5648      5644      5646      5658      5647      5646      5648
      5647      5646      5658      5648      5646      5658      5641      5649      5650
      5641      5649      5651      5641      5649      5652      5650      5649      5651
      5650      5649      5652      5651      5649      5652      5649      5652      5653
      5652      5653      5654      5652      5653      5655      5654      5653      5655
      5653      5655      5656      5653      5655      5657      5653      5655      5702
      5656      5655      5657      5656      5655      5702      5657      5655      5702
      5646      5658      5659      5646      5658      5660      5646      5658      5661
      5659      5658      5660      5659      5658      5661      5660      5658      5661
      5658      5661      5662      5658      5661      5663      5658      5661      5664
      5662      5661      5663      5662      5661      5664      5663      5661      5664
      5661      5664      5665      5661      5664      5666      5661      5664      5667
      5665      5664      5666      5665      5664      5667      5666      5664      5667
      5664      5667      5668      5664      5667      5669      5664      5667      5670
      5668      5667      5669      5668      5667      5670      5669      5667      5670
      5667      5670      5671      5667      5670      5672      5667      5670      5673
      5671      5670      5672      5671      5670      5673      5672      5670      5673
      5670      5673      5674      5670      5673      5675      5670      5673      5676
      5674      5673      5675      5674      5673      5676      5675      5673      5676
      5673      5676      5677      5673      5676      5678      5673      5676      5681
      5677      5676      5678      5677      5676      5681      5678      5676      5681
      5676      5678      5679      5676      5678      5680      5676      5678      5681
      5679      5678      5680      5679      5678      5681      5680      5678      5681
      5676      5681      5678      5676      5681      5682      5676      5681      5683
      5678      5681      5682      5678      5681      5683      5682      5681      5683
      5681      5683      5684      5681      5683      5685      5681      5683      5686
      5684      5683      5685      5684      5683      5686      5685      5683      5686
      5683      5686      5687      5683      5686      5688      5683      5686      5689
      5687      5686      5688      5687      5686      5689      5688      5686      5689
      5686      5689      5690      5686      5689      5691      5686      5689      5692
      5690      5689      5691      5690      5689      5692      5691      5689      5692
      5689      5692      5693      5689      5692      5694      5689      5692      5695
      5693      5692      5694      5693      5692      5695      5694      5692      5695
      5692      5695      5696      5692      5695      5697      5692      5695      5698
      5696      5695      5697      5696      5695      5698      5697      5695      5698
      5695      5698      5699      5695      5698      5700      5695      5698      5701
      5699      5698      5700      5699      5698      5701      5700      5698      5701
      5655      5702      5703      5655      5702      5704      5655      5702      5705
      5703      5702      5704      5703      5702      5705      5704      5702      5705
      5702      5705      5706      5702      5705      5707      5702      5705      5708
      5706      5705      5707      5706      5705      5708      5707      5705      5708
      5705      5708      5709      5705      5708      5710      5705      5708      5711
      5709      5708      5710      5709      5708      5711      5710      5708      5711
      5708      5711      5712      5708      5711      5713      5708      5711      5714
      5712      5711      5713      5712      5711      5714      5713      5711      5714
      5711      5714      5715      5711      5714      5716      5711      5714      5717
      5715      5714      5716      5715      5714      5717      5716      5714      5717
      5714      5717      5718      5714      5717      5719      5714      5717      5720
      5718      5717      5719      5718      5717      5720      5719      5717      5720
      5717      5720      5721      5717      5720      5722      5717      5720      5723
      5721      5720      5722      5721      5720      5723      5722      5720      5723
      5720      5723      5724      5720      5723      5725      5720      5723      5726
      5724      5723      5725      5724      5723      5726      5725      5723      5726
      5723      5726      5727      5723      5726      5728      5723      5726      5729
      5727      5726      5728      5727      5726      5729      5728      5726      5729
      5726      5729      5730      5726      5729      5731      5726      5729      5732
      5730      5729      5731      5730      5729      5732      5731      5729      5732
      5729      5732      5733      5729      5732      5734      5729      5732      5735
      5733      5732      5734      5733      5732      5735      5734      5732      5735
      5732      5735      5736      5732      5735      5737      5732      5735      5738
      5736      5735      5737      5736      5735      5738      5737      5735      5738
      5735      5738      5739      5735      5738      5740      5735      5738      5741
      5739      5738      5740      5739      5738      5741      5740      5738      5741
      5738      5741      5742      5738      5741      5743      5738      5741      5744
      5742      5741      5743      5742      5741      5744      5743      5741      5744
      5746      5745      5747      5746      5745      5748      5746      5745      5750
      5747      5745      5748      5747      5745      5750      5748      5745      5750
      5745      5748      5749      5745      5750      5751      5745      5750      5752
      5745      5750      5754      5751      5750      5752      5751      5750      5754
      5752      5750      5754      5750      5752      5753      5750      5754      5755
      5750      5754      5756      5750      5754      5761      5755      5754      5756
      5755      5754      5761      5756      5754      5761      5758      5757      5759
      5758      5757      5760      5758      5757      5761      5759      5757      5760
      5759      5757      5761      5760      5757      5761      5757      5760      5762
      5754      5761      5757      5760      5762      5763      5760      5762      5764
      5760      5762      5765      5763      5762      5764      5763      5762      5765
      5764      5762      5765      5762      5765      5766      5762      5765      5767
      5762      5765      5773      5766      5765      5767      5766      5765      5773
      5767      5765      5773      5765      5767      5768      5767      5768      5769
      5767      5768      5770      5769      5768      5770      5768      5770      5771
      5768      5770      5772      5768      5770      5782      5771      5770      5772
      5771      5770      5782      5772      5770      5782      5765      5773      5774
      5765      5773      5775      5765      5773      5776      5774      5773      5775
      5774      5773      5776      5775      5773      5776      5773      5776      5777
      5776      5777      5778      5776      5777      5779      5778      5777      5779
      5777      5779      5780      5777      5779      5781      5777      5779      5823
      5780      5779      5781      5780      5779      5823      5781      5779      5823
      5770      5782      5783      5770      5782      5784      5770      5782      5785
      5783      5782      5784      5783      5782      5785      5784      5782      5785
      5782      5785      5786      5782      5785      5787      5782      5785      5788
      5786      5785      5787      5786      5785      5788      5787      5785      5788
      5785      5788      5789      5785      5788      5790      5785      5788      5791
      5789      5788      5790      5789      5788      5791      5790      5788      5791
      5788      5791      5792      5788      5791      5793      5788      5791      5794
      5792      5791      5793      5792      5791      5794      5793      5791      5794
      5791      5794      5795      5791      5794      5796      5791      5794      5797
      5795      5794      5796      5795      5794      5797      5796      5794      5797
      5794      5797      5798      5794      5797      5799      5794      5797      5800
      5798      5797      5799      5798      5797      5800      5799      5797      5800
      5797      5800      5801      5797      5800      5802      5801      5800      5802
      5800      5802      5803      5800      5802      5804      5803      5802      5804
      5802      5804      5805      5802      5804      5806      5802      5804      5807
      5805      5804      5806      5805      5804      5807      5806      5804      5807
      5804      5807      5808      5804      5807      5809      5804      5807      5810
      5808      5807      5809      5808      5807      5810      5809      5807      5810
      5807      5810      5811      5807      5810      5812      5807      5810      5813
      5811      5810      5812      5811      5810      5813      5812      5810      5813
      5810      5813      5814      5810      5813      5815      5810      5813      5816
      5814      5813      5815      5814      5813      5816      5815      5813      5816
      5813      5816      5817      5813      5816      5818      5813      5816      5819
      5817      5816      5818      5817      5816      5819      5818      5816      5819
      5816      5819      5820      5816      5819      5821      5816      5819      5822
      5820      5819      5821      5820      5819      5822      5821      5819      5822
      5779      5823      5824      5779      5823      5825      5779      5823      5826
      5824      5823      5825      5824      5823      5826      5825      5823      5826
      5823      5826      5827      5823      5826      5828      5823      5826      5829
      5827      5826      5828      5827      5826      5829      5828      5826      5829
      5826      5829      5830      5826      5829      5831      5826      5829      5832
      5830      5829      5831      5830      5829      5832      5831      5829      5832
      5829      5832      5833      5829      5832      5834      5829      5832      5835
      5833      5832      5834      5833      5832      5835      5834      5832      5835
      5832      5835      5836      5832      5835      5837      5832      5835      5838
      5836      5835      5837      5836      5835      5838      5837      5835      5838
      5835      5838      5839      5835      5838      5840      5835      5838      5841
      5839      5838      5840      5839      5838      5841      5840      5838      5841
      5838      5841      5842      5838      5841      5843      5838      5841      5844
      5842      5841      5843      5842      5841      5844      5843      5841      5844
      5841      5844      5845      5841      5844      5846      5841      5844      5847
      5845      5844      5846      5845      5844      5847      5846      5844      5847
      5844      5847      5848      5844      5847      5849      5844      5847      5850
      5848      5847      5849      5848      5847      5850      5849      5847      5850
      5847      5850      5851      5847      5850      5852      5847      5850      5853
      5851      5850      5852      5851      5850      5853      5852      5850      5853
      5850      5853      5854      5850      5853      5855      5850      5853      5856
      5854      5853      5855      5854      5853      5856      5855      5853      5856
      5853      5856      5857      5853      5856      5858      5853      5856      5859
      5857      5856      5858      5857      5856      5859      5858      5856      5859
      5856      5859      5860      5856      5859      5861      5856      5859      5862
      5860      5859      5861      5860      5859      5862      5861      5859      5862
      5859      5862      5863      5859      5862      5864      5859      5862      5865
      5863      5862      5864      5863      5862      5865      5864      5862      5865
      5867      5866      5868      5867      5866      5869      5867      5866      5871
      5868      5866      5869      5868      5866      5871      5869      5866      5871
      5866      5869      5870      5866      5871      5872      5866      5871      5873
      5866      5871      5875      5872      5871      5873      5872      5871      5875
      5873      5871      5875      5871      5873      5874      5871      5875      5876
      5871      5875      5877      5871      5875      5882      5876      5875      5877
      5876      5875      5882      5877      5875      5882      5879      5878      5880
      5879      5878      5881      5879      5878      5882      5880      5878      5881
      5880      5878      5882      5881      5878      5882      5878      5881      5883
      5875      5882      5878      5881      5883      5884      5881      5883      5885
      5881      5883      5886      5884      5883      5885      5884      5883      5886
      5885      5883      5886      5883      5886      5887      5883      5886      5888
      5883      5886      5894      5887      5886      5888      5887      5886      5894
      5888      5886      5894      5886      5888      5889      5888      5889      5890
      5888      5889      5891      5890      5889      5891      5889      5891      5892
      5889      5891      5893      5889      5891      5903      5892      5891      5893
      5892      5891      5903      5893      5891      5903      5886      5894      5895
      5886      5894      5896      5886      5894      5897      5895      5894      5896
      5895      5894      5897      5896      5894      5897      5894      5897      5898
      5897      5898      5899      5897      5898      5900      5899      5898      5900
      5898      5900      5901      5898      5900      5902      5898      5900      5947
      5901      5900      5902      5901      5900      5947      5902      5900      5947
      5891      5903      5904      5891      5903      5905      5891      5903      5906
      5904      5903      5905      5904      5903      5906      5905      5903      5906
      5903      5906      5907      5903      5906      5908      5903      5906      5909
      5907      5906      5908      5907      5906      5909      5908      5906      5909
      5906      5909      5910      5906      5909      5911      5906      5909      5912
      5910      5909      5911      5910      5909      5912      5911      5909      5912
      5909      5912      5913      5909      5912      5914      5909      5912      5915
      5913      5912      5914      5913      5912      5915      5914      5912      5915
      5912      5915      5916      5912      5915      5917      5912      5915      5918
      5916      5915      5917      5916      5915      5918      5917      5915      5918
      5915      5918      5919      5915      5918      5920      5915      5918      5921
      5919      5918      5920      5919      5918      5921      5920      5918      5921
      5918      5921      5922      5918      5921      5923      5918      5921      5926
      5922      5921      5923      5922      5921      5926      5923      5921      5926
      5921      5923      5924      5921      5923      5925      5921      5923      5926
      5924      5923      5925      5924      5923      5926      5925      5923      5926
      5921      5926      5923      5921      5926      5927      5921      5926      5928
      5923      5926      5927      5923      5926      5928      5927      5926      5928
      5926      5928      5929      5926      5928      5930      5926      5928      5931
      5929      5928      5930      5929      5928      5931      5930      5928      5931
      5928      5931      5932      5928      5931      5933      5928      5931      5934
      5932      5931      5933      5932      5931      5934      5933      5931      5934
      5931      5934      5935      5931      5934      5936      5931      5934      5937
      5935      5934      5936      5935      5934      5937      5936      5934      5937
      5934      5937      5938      5934      5937      5939      5934      5937      5940
      5938      5937      5939      5938      5937      5940      5939      5937      5940
      5937      5940      5941      5937      5940      5942      5937      5940      5943
      5941      5940      5942      5941      5940      5943      5942      5940      5943
      5940      5943      5944      5940      5943      5945      5940      5943      5946
      5944      5943      5945      5944      5943      5946      5945      5943      5946
      5900      5947      5948      5900      5947      5949      5900      5947      5950
      5948      5947      5949      5948      5947      5950      5949      5947      5950
      5947      5950      5951      5947      5950      5952      5947      5950      5953
      5951      5950      5952      5951      5950      5953      5952      5950      5953
      5950      5953      5954      5950      5953      5955      5950      5953      5956
      5954      5953      5955      5954      5953      5956      5955      5953      5956
      5953      5956      5957      5953      5956      5958      5953      5956      5959
      5957      5956      5958      5957      5956      5959      5958      5956      5959
      5956      5959      5960      5956      5959      5961      5956      5959      5962
      5960      5959      5961      5960      5959      5962      5961      5959      5962
      5959      5962      5963      5959      5962      5964      5959      5962      5965
      5963      5962      5964      5963      5962      5965      5964      5962      5965
      5962      5965      5966      5962      5965      5967      5962      5965      5968
      5966      5965      5967      5966      5965      5968      5967      5965      5968
      5965      5968      5969      5965      5968      5970      5965      5968      5971
      5969      5968      5970      5969      5968      5971      5970      5968      5971
      5968      5971      5972      5968      5971      5973      5968      5971      5974
      5972      5971      5973      5972      5971      5974      5973      5971      5974
      5971      5974      5975      5971      5974      5976      5971      5974      5977
      5975      5974      5976      5975      5974      5977      5976      5974      5977
      5974      5977      5978      5974      5977      5979      5974      5977      5980
      5978      5977      5979      5978      5977      5980      5979      5977      5980
      5977      5980      5981      5977      5980      5982      5977      5980      5983
      5981      5980      5982      5981      5980      5983      5982      5980      5983
      5980      5983      5984      5980      5983      5985      5980      5983      5986
      5984      5983      5985      5984      5983      5986      5985      5983      5986
      5983      5986      5987      5983      5986      5988      5983      5986      5989
      5987      5986      5988      5987      5986      5989      5988      5986      5989
      5991      5990      5992      5991      5990      5993      5991      5990      5994
      5992      5990      5993      5992      5990      5994      5993      5990      5994
      5990      5994      5995      5990      5994      5996      5990      5994      5997
      5995      5994      5996      5995      5994      5997      5996      5994      5997
      5994      5997      5998      5994      5997      5999      5994      5997      6004
      5998      5997      5999      5998      5997      6004      5999      5997      6004
      6001      6000      6002      6001      6000      6003      6001      6000      6004
      6002      6000      6003      6002      6000      6004      6003      6000      6004
      6000      6003      6005      5997      6004      6000      6003      6005      6006
      6003      6005      6007      6003      6005      6008      6006      6005      6007
      6006      6005      6008      6007      6005      6008      6005      6008      6009
      6005      6008      6010      6005      6008      6016      6009      6008      6010
      6009      6008      6016      6010      6008      6016      6008      6010      6011
      6010      6011      6012      6010      6011      6013      6012      6011      6013
      6011      6013      6014      6011      6013      6015      6011      6013      6025
      6014      6013      6015      6014      6013      6025      6015      6013      6025
      6008      6016      6017      6008      6016      6018      6008      6016      6019
      6017      6016      6018      6017      6016      6019      6018      6016      6019
      6016      6019      6020      6019      6020      6021      6019      6020      6022
      6021      6020      6022      6020      6022      6023      6020      6022      6024
      6020      6022      6069      6023      6022      6024      6023      6022      6069
      6024      6022      6069      6013      6025      6026      6013      6025      6027
      6013      6025      6028      6026      6025      6027      6026      6025      6028
      6027      6025      6028      6025      6028      6029      6025      6028      6030
      6025      6028      6031      6029      6028      6030      6029      6028      6031
      6030      6028      6031      6028      6031      6032      6028      6031      6033
      6028      6031      6034      6032      6031      6033      6032      6031      6034
      6033      6031      6034      6031      6034      6035      6031      6034      6036
      6031      6034      6037      6035      6034      6036      6035      6034      6037
      6036      6034      6037      6034      6037      6038      6034      6037      6039
      6034      6037      6040      6038      6037      6039      6038      6037      6040
      6039      6037      6040      6037      6040      6041      6037      6040      6042
      6037      6040      6043      6041      6040      6042      6041      6040      6043
      6042      6040      6043      6040      6043      6044      6040      6043      6045
      6040      6043      6048      6044      6043      6045      6044      6043      6048
      6045      6043      6048      6043      6045      6046      6043      6045      6047
      6043      6045      6048      6046      6045      6047      6046      6045      6048
      6047      6045      6048      6043      6048      6045      6043      6048      6049
      6043      6048      6050      6045      6048      6049      6045      6048      6050
      6049      6048      6050      6048      6050      6051      6048      6050      6052
      6048      6050      6053      6051      6050      6052      6051      6050      6053
      6052      6050      6053      6050      6053      6054      6050      6053      6055
      6050      6053      6056      6054      6053      6055      6054      6053      6056
      6055      6053      6056      6053      6056      6057      6053      6056      6058
      6053      6056      6059      6057      6056      6058      6057      6056      6059
      6058      6056      6059      6056      6059      6060      6056      6059      6061
      6056      6059      6062      6060      6059      6061      6060      6059      6062
      6061      6059      6062      6059      6062      6063      6059      6062      6064
      6059      6062      6065      6063      6062      6064      6063      6062      6065
      6064      6062      6065      6062      6065      6066      6062      6065      6067
      6062      6065      6068      6066      6065      6067      6066      6065      6068
      6067      6065      6068      6022      6069      6070      6022      6069      6071
      6022      6069      6072      6070      6069      6071      6070      6069      6072
      6071      6069      6072      6069      6072      6073      6069      6072      6074
      6069      6072      6075      6073      6072      6074      6073      6072      6075
      6074      6072      6075      6072      6075      6076      6072      6075      6077
      6072      6075      6078      6076      6075      6077      6076      6075      6078
      6077      6075      6078      6075      6078      6079      6075      6078      6080
      6075      6078      6081      6079      6078      6080      6079      6078      6081
      6080      6078      6081      6078      6081      6082      6078      6081      6083
      6078      6081      6084      6082      6081      6083      6082      6081      6084
      6083      6081      6084      6081      6084      6085      6081      6084      6086
      6081      6084      6087      6085      6084      6086      6085      6084      6087
      6086      6084      6087      6084      6087      6088      6084      6087      6089
      6084      6087      6090      6088      6087      6089      6088      6087      6090
      6089      6087      6090      6087      6090      6091      6087      6090      6092
      6087      6090      6093      6091      6090      6092      6091      6090      6093
      6092      6090      6093      6090      6093      6094      6090      6093      6095
      6090      6093      6096      6094      6093      6095      6094      6093      6096
      6095      6093      6096      6093      6096      6097      6093      6096      6098
      6093      6096      6099      6097      6096      6098      6097      6096      6099
      6098      6096      6099      6096      6099      6100      6096      6099      6101
      6096      6099      6102      6100      6099      6101      6100      6099      6102
      6101      6099      6102      6099      6102      6103      6099      6102      6104
      6099      6102      6105      6103      6102      6104      6103      6102      6105
      6104      6102      6105      6102      6105      6106      6102      6105      6107
      6102      6105      6108      6106      6105      6107      6106      6105      6108
      6107      6105      6108      6105      6108      6109      6105      6108      6110
      6105      6108      6111      6109      6108      6110      6109      6108      6111
      6110      6108      6111      6113      6112      6114      6113      6112      6115
      6113      6112      6116      6114      6112      6115      6114      6112      6116
      6115      6112      6116      6112      6116      6117      6112      6116      6118
      6112      6116      6119      6117      6116      6118      6117      6116      6119
      6118      6116      6119      6116      6119      6120      6116      6119      6121
      6116      6119      6126      6120      6119      6121      6120      6119      6126
      6121      6119      6126      6123      6122      6124      6123      6122      6125
      6123      6122      6126      6124      6122      6125      6124      6122      6126
      6125      6122      6126      6122      6125      6127      6119      6126      6122
      6125      6127      6128      6125      6127      6129      6125      6127      6130
      6128      6127      6129      6128      6127      6130      6129      6127      6130
      6127      6130      6131      6127      6130      6132      6127      6130      6138
      6131      6130      6132      6131      6130      6138      6132      6130      6138
      6130      6132      6133      6132      6133      6134      6132      6133      6135
      6134      6133      6135      6133      6135      6136      6133      6135      6137
      6133      6135      6147      6136      6135      6137      6136      6135      6147
      6137      6135      6147      6130      6138      6139      6130      6138      6140
      6130      6138      6141      6139      6138      6140      6139      6138      6141
      6140      6138      6141      6138      6141      6142      6141      6142      6143
      6141      6142      6144      6143      6142      6144      6142      6144      6145
      6142      6144      6146      6142      6144      6191      6145      6144      6146
      6145      6144      6191      6146      6144      6191      6135      6147      6148
      6135      6147      6149      6135      6147      6150      6148      6147      6149
      6148      6147      6150      6149      6147      6150      6147      6150      6151
      6147      6150      6152      6147      6150      6153      6151      6150      6152
      6151      6150      6153      6152      6150      6153      6150      6153      6154
      6150      6153      6155      6150      6153      6156      6154      6153      6155
      6154      6153      6156      6155      6153      6156      6153      6156      6157
      6153      6156      6158      6153      6156      6159      6157      6156      6158
      6157      6156      6159      6158      6156      6159      6156      6159      6160
      6156      6159      6161      6156      6159      6162      6160      6159      6161
      6160      6159      6162      6161      6159      6162      6159      6162      6163
      6159      6162      6164      6159      6162      6165      6163      6162      6164
      6163      6162      6165      6164      6162      6165      6162      6165      6166
      6162      6165      6167      6162      6165      6170      6166      6165      6167
      6166      6165      6170      6167      6165      6170      6165      6167      6168
      6165      6167      6169      6165      6167      6170      6168      6167      6169
      6168      6167      6170      6169      6167      6170      6165      6170      6167
      6165      6170      6171      6165      6170      6172      6167      6170      6171
      6167      6170      6172      6171      6170      6172      6170      6172      6173
      6170      6172      6174      6170      6172      6175      6173      6172      6174
      6173      6172      6175      6174      6172      6175      6172      6175      6176
      6172      6175      6177      6172      6175      6178      6176      6175      6177
      6176      6175      6178      6177      6175      6178      6175      6178      6179
      6175      6178      6180      6175      6178      6181      6179      6178      6180
      6179      6178      6181      6180      6178      6181      6178      6181      6182
      6178      6181      6183      6178      6181      6184      6182      6181      6183
      6182      6181      6184      6183      6181      6184      6181      6184      6185
      6181      6184      6186      6181      6184      6187      6185      6184      6186
      6185      6184      6187      6186      6184      6187      6184      6187      6188
      6184      6187      6189      6184      6187      6190      6188      6187      6189
      6188      6187      6190      6189      6187      6190      6144      6191      6192
      6144      6191      6193      6144      6191      6194      6192      6191      6193
      6192      6191      6194      6193      6191      6194      6191      6194      6195
      6191      6194      6196      6191      6194      6197      6195      6194      6196
      6195      6194      6197      6196      6194      6197      6194      6197      6198
      6194      6197      6199      6194      6197      6200      6198      6197      6199
      6198      6197      6200      6199      6197      6200      6197      6200      6201
      6197      6200      6202      6197      6200      6203      6201      6200      6202
      6201      6200      6203      6202      6200      6203      6200      6203      6204
      6200      6203      6205      6200      6203      6206      6204      6203      6205
      6204      6203      6206      6205      6203      6206      6203      6206      6207
      6203      6206      6208      6203      6206      6209      6207      6206      6208
      6207      6206      6209      6208      6206      6209      6206      6209      6210
      6206      6209      6211      6206      6209      6212      6210      6209      6211
      6210      6209      6212      6211      6209      6212      6209      6212      6213
      6209      6212      6214      6209      6212      6215      6213      6212      6214
      6213      6212      6215      6214      6212      6215      6212      6215      6216
      6212      6215      6217      6212      6215      6218      6216      6215      6217
      6216      6215      6218      6217      6215      6218      6215      6218      6219
      6215      6218      6220      6215      6218      6221      6219      6218      6220
      6219      6218      6221      6220      6218      6221      6218      6221      6222
      6218      6221      6223      6218      6221      6224      6222      6221      6223
      6222      6221      6224      6223      6221      6224      6221      6224      6225
      6221      6224      6226      6221      6224      6227      6225      6224      6226
      6225      6224      6227      6226      6224      6227      6224      6227      6228
      6224      6227      6229      6224      6227      6230      6228      6227      6229
      6228      6227      6230      6229      6227      6230      6227      6230      6231
      6227      6230      6232      6227      6230      6233      6231      6230      6232
      6231      6230      6233      6232      6230      6233      6235      6234      6236
      6235      6234      6237      6235      6234      6238      6236      6234      6237
      6236      6234      6238      6237      6234      6238      6234      6238      6239
      6234      6238      6240      6234      6238      6241      6239      6238      6240
      6239      6238      6241      6240      6238      6241      6238      6241      6242
      6238      6241      6243      6238      6241      6248      6242      6241      6243
      6242      6241      6248      6243      6241      6248      6245      6244      6246
      6245      6244      6247      6245      6244      6248      6246      6244      6247
      6246      6244      6248      6247      6244      6248      6244      6247      6249
      6241      6248      6244      6247      6249      6250      6247      6249      6251
      6247      6249      6252      6250      6249      6251      6250      6249      6252
      6251      6249      6252      6249      6252      6253      6249      6252      6254
      6249      6252      6260      6253      6252      6254      6253      6252      6260
      6254      6252      6260      6252      6254      6255      6254      6255      6256
      6254      6255      6257      6256      6255      6257      6255      6257      6258
      6255      6257      6259      6255      6257      6269      6258      6257      6259
      6258      6257      6269      6259      6257      6269      6252      6260      6261
      6252      6260      6262      6252      6260      6263      6261      6260      6262
      6261      6260      6263      6262      6260      6263      6260      6263      6264
      6263      6264      6265      6263      6264      6266      6265      6264      6266
      6264      6266      6267      6264      6266      6268      6264      6266      6313
      6267      6266      6268      6267      6266      6313      6268      6266      6313
      6257      6269      6270      6257      6269      6271      6257      6269      6272
      6270      6269      6271      6270      6269      6272      6271      6269      6272
      6269      6272      6273      6269      6272      6274      6269      6272      6275
      6273      6272      6274      6273      6272      6275      6274      6272      6275
      6272      6275      6276      6272      6275      6277      6272      6275      6278
      6276      6275      6277      6276      6275      6278      6277      6275      6278
      6275      6278      6279      6275      6278      6280      6275      6278      6281
      6279      6278      6280      6279      6278      6281      6280      6278      6281
      6278      6281      6282      6278      6281      6283      6278      6281      6284
      6282      6281      6283      6282      6281      6284      6283      6281      6284
      6281      6284      6285      6281      6284      6286      6281      6284      6287
      6285      6284      6286      6285      6284      6287      6286      6284      6287
      6284      6287      6288      6284      6287      6289      6284      6287      6292
      6288      6287      6289      6288      6287      6292      6289      6287      6292
      6287      6289      6290      6287      6289      6291      6287      6289      6292
      6290      6289      6291      6290      6289      6292      6291      6289      6292
      6287      6292      6289      6287      6292      6293      6287      6292      6294
      6289      6292      6293      6289      6292      6294      6293      6292      6294
      6292      6294      6295      6292      6294      6296      6292      6294      6297
      6295      6294      6296      6295      6294      6297      6296      6294      6297
      6294      6297      6298      6294      6297      6299      6294      6297      6300
      6298      6297      6299      6298      6297      6300      6299      6297      6300
      6297      6300      6301      6297      6300      6302      6297      6300      6303
      6301      6300      6302      6301      6300      6303      6302      6300      6303
      6300      6303      6304      6300      6303      6305      6300      6303      6306
      6304      6303      6305      6304      6303      6306      6305      6303      6306
      6303      6306      6307      6303      6306      6308      6303      6306      6309
      6307      6306      6308      6307      6306      6309      6308      6306      6309
      6306      6309      6310      6306      6309      6311      6306      6309      6312
      6310      6309      6311      6310      6309      6312      6311      6309      6312
      6266      6313      6314      6266      6313      6315      6266      6313      6316
      6314      6313      6315      6314      6313      6316      6315      6313      6316
      6313      6316      6317      6313      6316      6318      6313      6316      6319
      6317      6316      6318      6317      6316      6319      6318      6316      6319
      6316      6319      6320      6316      6319      6321      6316      6319      6322
      6320      6319      6321      6320      6319      6322      6321      6319      6322
      6319      6322      6323      6319      6322      6324      6319      6322      6325
      6323      6322      6324      6323      6322      6325      6324      6322      6325
      6322      6325      6326      6322      6325      6327      6322      6325      6328
      6326      6325      6327      6326      6325      6328      6327      6325      6328
      6325      6328      6329      6325      6328      6330      6325      6328      6331
      6329      6328      6330      6329      6328      6331      6330      6328      6331
      6328      6331      6332      6328      6331      6333      6328      6331      6334
      6332      6331      6333      6332      6331      6334      6333      6331      6334
      6331      6334      6335      6331      6334      6336      6331      6334      6337
      6335      6334      6336      6335      6334      6337      6336      6334      6337
      6334      6337      6338      6334      6337      6339      6334      6337      6340
      6338      6337      6339      6338      6337      6340      6339      6337      6340
      6337      6340      6341      6337      6340      6342      6337      6340      6343
      6341      6340      6342      6341      6340      6343      6342      6340      6343
      6340      6343      6344      6340      6343      6345      6340      6343      6346
      6344      6343      6345      6344      6343      6346      6345      6343      6346
      6343      6346      6347      6343      6346      6348      6343      6346      6349
      6347      6346      6348      6347      6346      6349      6348      6346      6349
      6346      6349      6350      6346      6349      6351      6346      6349      6352
      6350      6349      6351      6350      6349      6352      6351      6349      6352
      6349      6352      6353      6349      6352      6354      6349      6352      6355
      6353      6352      6354      6353      6352      6355      6354      6352      6355
      6357      6356      6358      6357      6356      6359      6357      6356      6360
      6358      6356      6359      6358      6356      6360      6359      6356      6360
      6356      6360      6361      6356      6360      6362      6356      6360      6363
      6361      6360      6362      6361      6360      6363      6362      6360      6363
      6360      6363      6364      6360      6363      6365      6360      6363      6370
      6364      6363      6365      6364      6363      6370      6365      6363      6370
      6367      6366      6368      6367      6366      6369      6367      6366      6370
      6368      6366      6369      6368      6366      6370      6369      6366      6370
      6366      6369      6371      6363      6370      6366      6369      6371      6372
      6369      6371      6373      6369      6371      6374      6372      6371      6373
      6372      6371      6374      6373      6371      6374      6371      6374      6375
      6371      6374      6376      6371      6374      6382      6375      6374      6376
      6375      6374      6382      6376      6374      6382      6374      6376      6377
      6376      6377      6378      6376      6377      6379      6378      6377      6379
      6377      6379      6380      6377      6379      6381      6377      6379      6391
      6380      6379      6381      6380      6379      6391      6381      6379      6391
      6374      6382      6383      6374      6382      6384      6374      6382      6385
      6383      6382      6384      6383      6382      6385      6384      6382      6385
      6382      6385      6386      6385      6386      6387      6385      6386      6388
      6387      6386      6388      6386      6388      6389      6386      6388      6390
      6386      6388      6435      6389      6388      6390      6389      6388      6435
      6390      6388      6435      6379      6391      6392      6379      6391      6393
      6379      6391      6394      6392      6391      6393      6392      6391      6394
      6393      6391      6394      6391      6394      6395      6391      6394      6396
      6391      6394      6397      6395      6394      6396      6395      6394      6397
      6396      6394      6397      6394      6397      6398      6394      6397      6399
      6394      6397      6400      6398      6397      6399      6398      6397      6400
      6399      6397      6400      6397      6400      6401      6397      6400      6402
      6397      6400      6403      6401      6400      6402      6401      6400      6403
      6402      6400      6403      6400      6403      6404      6400      6403      6405
      6400      6403      6406      6404      6403      6405      6404      6403      6406
      6405      6403      6406      6403      6406      6407      6403      6406      6408
      6403      6406      6409      6407      6406      6408      6407      6406      6409
      6408      6406      6409      6406      6409      6410      6406      6409      6411
      6406      6409      6414      6410      6409      6411      6410      6409      6414
      6411      6409      6414      6409      6411      6412      6409      6411      6413
      6409      6411      6414      6412      6411      6413      6412      6411      6414
      6413      6411      6414      6409      6414      6411      6409      6414      6415
      6409      6414      6416      6411      6414      6415      6411      6414      6416
      6415      6414      6416      6414      6416      6417      6414      6416      6418
      6414      6416      6419      6417      6416      6418      6417      6416      6419
      6418      6416      6419      6416      6419      6420      6416      6419      6421
      6416      6419      6422      6420      6419      6421      6420      6419      6422
      6421      6419      6422      6419      6422      6423      6419      6422      6424
      6419      6422      6425      6423      6422      6424      6423      6422      6425
      6424      6422      6425      6422      6425      6426      6422      6425      6427
      6422      6425      6428      6426      6425      6427      6426      6425      6428
      6427      6425      6428      6425      6428      6429      6425      6428      6430
      6425      6428      6431      6429      6428      6430      6429      6428      6431
      6430      6428      6431      6428      6431      6432      6428      6431      6433
      6428      6431      6434      6432      6431      6433      6432      6431      6434
      6433      6431      6434      6388      6435      6436      6388      6435      6437
      6388      6435      6438      6436      6435      6437      6436      6435      6438
      6437      6435      6438      6435      6438      6439      6435      6438      6440
      6435      6438      6441      6439      6438      6440      6439      6438      6441
      6440      6438      6441      6438      6441      6442      6438      6441      6443
      6438      6441      6444      6442      6441      6443      6442      6441      6444
      6443      6441      6444      6441      6444      6445      6441      6444      6446
      6441      6444      6447      6445      6444      6446      6445      6444      6447
      6446      6444      6447      6444      6447      6448      6444      6447      6449
      6444      6447      6450      6448      6447      6449      6448      6447      6450
      6449      6447      6450      6447      6450      6451      6447      6450      6452
      6447      6450      6453      6451      6450      6452      6451      6450      6453
      6452      6450      6453      6450      6453      6454      6450      6453      6455
      6450      6453      6456      6454      6453      6455      6454      6453      6456
      6455      6453      6456      6453      6456      6457      6453      6456      6458
      6453      6456      6459      6457      6456      6458      6457      6456      6459
      6458      6456      6459      6456      6459      6460      6456      6459      6461
      6456      6459      6462      6460      6459      6461      6460      6459      6462
      6461      6459      6462      6459      6462      6463      6459      6462      6464
      6459      6462      6465      6463      6462      6464      6463      6462      6465
      6464      6462      6465      6462      6465      6466      6462      6465      6467
      6462      6465      6468      6466      6465      6467      6466      6465      6468
      6467      6465      6468      6465      6468      6469      6465      6468      6470
      6465      6468      6471      6469      6468      6470      6469      6468      6471
      6470      6468      6471      6468      6471      6472      6468      6471      6473
      6468      6471      6474      6472      6471      6473      6472      6471      6474
      6473      6471      6474      6471      6474      6475      6471      6474      6476
      6471      6474      6477      6475      6474      6476      6475      6474      6477
      6476      6474      6477      6479      6478      6480      6479      6478      6481
      6479      6478      6483      6480      6478      6481      6480      6478      6483
      6481      6478      6483      6478      6481      6482      6478      6483      6484
      6478      6483      6485      6478      6483      6487      6484      6483      6485
      6484      6483      6487      6485      6483      6487      6483      6485      6486
      6483      6487      6488      6483      6487      6489      6483      6487      6494
      6488      6487      6489      6488      6487      6494      6489      6487      6494
      6491      6490      6492      6491      6490      6493      6491      6490      6494
      6492      6490      6493      6492      6490      6494      6493      6490      6494
      6490      6493      6495      6487      6494      6490      6493      6495      6496
      6493      6495      6497      6493      6495      6498      6496      6495      6497
      6496      6495      6498      6497      6495      6498      6495      6498      6499
      6495      6498      6500      6495      6498      6506      6499      6498      6500
      6499      6498      6506      6500      6498      6506      6498      6500      6501
      6500      6501      6502      6500      6501      6503      6502      6501      6503
      6501      6503      6504      6501      6503      6505      6501      6503      6515
      6504      6503      6505      6504      6503      6515      6505      6503      6515
      6498      6506      6507      6498      6506      6508      6498      6506      6509
      6507      6506      6508      6507      6506      6509      6508      6506      6509
      6506      6509      6510      6509      6510      6511      6509      6510      6512
      6511      6510      6512      6510      6512      6513      6510      6512      6514
      6510      6512      6559      6513      6512      6514      6513      6512      6559
      6514      6512      6559      6503      6515      6516      6503      6515      6517
      6503      6515      6518      6516      6515      6517      6516      6515      6518
      6517      6515      6518      6515      6518      6519      6515      6518      6520
      6515      6518      6521      6519      6518      6520      6519      6518      6521
      6520      6518      6521      6518      6521      6522      6518      6521      6523
      6518      6521      6524      6522      6521      6523      6522      6521      6524
      6523      6521      6524      6521      6524      6525      6521      6524      6526
      6521      6524      6527      6525      6524      6526      6525      6524      6527
      6526      6524      6527      6524      6527      6528      6524      6527      6529
      6524      6527      6530      6528      6527      6529      6528      6527      6530
      6529      6527      6530      6527      6530      6531      6527      6530      6532
      6527      6530      6533      6531      6530      6532      6531      6530      6533
      6532      6530      6533      6530      6533      6534      6530      6533      6535
      6530      6533      6538      6534      6533      6535      6534      6533      6538
      6535      6533      6538      6533      6535      6536      6533      6535      6537
      6533      6535      6538      6536      6535      6537      6536      6535      6538
      6537      6535      6538      6533      6538      6535      6533      6538      6539
      6533      6538      6540      6535      6538      6539      6535      6538      6540
      6539      6538      6540      6538      6540      6541      6538      6540      6542
      6538      6540      6543      6541      6540      6542      6541      6540      6543
      6542      6540      6543      6540      6543      6544      6540      6543      6545
      6540      6543      6546      6544      6543      6545      6544      6543      6546
      6545      6543      6546      6543      6546      6547      6543      6546      6548
      6543      6546      6549      6547      6546      6548      6547      6546      6549
      6548      6546      6549      6546      6549      6550      6546      6549      6551
      6546      6549      6552      6550      6549      6551      6550      6549      6552
      6551      6549      6552      6549      6552      6553      6549      6552      6554
      6549      6552      6555      6553      6552      6554      6553      6552      6555
      6554      6552      6555      6552      6555      6556      6552      6555      6557
      6552      6555      6558      6556      6555      6557      6556      6555      6558
      6557      6555      6558      6512      6559      6560      6512      6559      6561
      6512      6559      6562      6560      6559      6561      6560      6559      6562
      6561      6559      6562      6559      6562      6563      6559      6562      6564
      6559      6562      6565      6563      6562      6564      6563      6562      6565
      6564      6562      6565      6562      6565      6566      6562      6565      6567
      6562      6565      6568      6566      6565      6567      6566      6565      6568
      6567      6565      6568      6565      6568      6569      6565      6568      6570
      6565      6568      6571      6569      6568      6570      6569      6568      6571
      6570      6568      6571      6568      6571      6572      6568      6571      6573
      6568      6571      6574      6572      6571      6573      6572      6571      6574
      6573      6571      6574      6571      6574      6575      6571      6574      6576
      6571      6574      6577      6575      6574      6576      6575      6574      6577
      6576      6574      6577      6574      6577      6578      6574      6577      6579
      6574      6577      6580      6578      6577      6579      6578      6577      6580
      6579      6577      6580      6577      6580      6581      6577      6580      6582
      6577      6580      6583      6581      6580      6582      6581      6580      6583
      6582      6580      6583      6580      6583      6584      6580      6583      6585
      6580      6583      6586      6584      6583      6585      6584      6583      6586
      6585      6583      6586      6583      6586      6587      6583      6586      6588
      6583      6586      6589      6587      6586      6588      6587      6586      6589
      6588      6586      6589      6586      6589      6590      6586      6589      6591
      6586      6589      6592      6590      6589      6591      6590      6589      6592
      6591      6589      6592      6589      6592      6593      6589      6592      6594
      6589      6592      6595      6593      6592      6594      6593      6592      6595
      6594      6592      6595      6592      6595      6596      6592      6595      6597
      6592      6595      6598      6596      6595      6597      6596      6595      6598
      6597      6595      6598      6595      6598      6599      6595      6598      6600
      6595      6598      6601      6599      6598      6600      6599      6598      6601
      6600      6598      6601      6603      6602      6604      6603      6602      6605
      6603      6602      6607      6604      6602      6605      6604      6602      6607
      6605      6602      6607      6602      6605      6606      6602      6607      6608
      6602      6607      6609      6602      6607      6611      6608      6607      6609
      6608      6607      6611      6609      6607      6611      6607      6609      6610
      6607      6611      6612      6607      6611      6613      6607      6611      6618
      6612      6611      6613      6612      6611      6618      6613      6611      6618
      6615      6614      6616      6615      6614      6617      6615      6614      6618
      6616      6614      6617      6616      6614      6618      6617      6614      6618
      6614      6617      6619      6611      6618      6614      6617      6619      6620
      6617      6619      6621      6617      6619      6622      6620      6619      6621
      6620      6619      6622      6621      6619      6622      6619      6622      6623
      6619      6622      6624      6619      6622      6630      6623      6622      6624
      6623      6622      6630      6624      6622      6630      6622      6624      6625
      6624      6625      6626      6624      6625      6627      6626      6625      6627
      6625      6627      6628      6625      6627      6629      6625      6627      6639
      6628      6627      6629      6628      6627      6639      6629      6627      6639
      6622      6630      6631      6622      6630      6632      6622      6630      6633
      6631      6630      6632      6631      6630      6633      6632      6630      6633
      6630      6633      6634      6633      6634      6635      6633      6634      6636
      6635      6634      6636      6634      6636      6637      6634      6636      6638
      6634      6636      6683      6637      6636      6638      6637      6636      6683
      6638      6636      6683      6627      6639      6640      6627      6639      6641
      6627      6639      6642      6640      6639      6641      6640      6639      6642
      6641      6639      6642      6639      6642      6643      6639      6642      6644
      6639      6642      6645      6643      6642      6644      6643      6642      6645
      6644      6642      6645      6642      6645      6646      6642      6645      6647
      6642      6645      6648      6646      6645      6647      6646      6645      6648
      6647      6645      6648      6645      6648      6649      6645      6648      6650
      6645      6648      6651      6649      6648      6650      6649      6648      6651
      6650      6648      6651      6648      6651      6652      6648      6651      6653
      6648      6651      6654      6652      6651      6653      6652      6651      6654
      6653      6651      6654      6651      6654      6655      6651      6654      6656
      6651      6654      6657      6655      6654      6656      6655      6654      6657
      6656      6654      6657      6654      6657      6658      6654      6657      6659
      6654      6657      6662      6658      6657      6659      6658      6657      6662
      6659      6657      6662      6657      6659      6660      6657      6659      6661
      6657      6659      6662      6660      6659      6661      6660      6659      6662
      6661      6659      6662      6657      6662      6659      6657      6662      6663
      6657      6662      6664      6659      6662      6663      6659      6662      6664
      6663      6662      6664      6662      6664      6665      6662      6664      6666
      6662      6664      6667      6665      6664      6666      6665      6664      6667
      6666      6664      6667      6664      6667      6668      6664      6667      6669
      6664      6667      6670      6668      6667      6669      6668      6667      6670
      6669      6667      6670      6667      6670      6671      6667      6670      6672
      6667      6670      6673      6671      6670      6672      6671      6670      6673
      6672      6670      6673      6670      6673      6674      6670      6673      6675
      6670      6673      6676      6674      6673      6675      6674      6673      6676
      6675      6673      6676      6673      6676      6677      6673      6676      6678
      6673      6676      6679      6677      6676      6678      6677      6676      6679
      6678      6676      6679      6676      6679      6680      6676      6679      6681
      6676      6679      6682      6680      6679      6681      6680      6679      6682
      6681      6679      6682      6636      6683      6684      6636      6683      6685
      6636      6683      6686      6684      6683      6685      6684      6683      6686
      6685      6683      6686      6683      6686      6687      6683      6686      6688
      6683      6686      6689      6687      6686      6688      6687      6686      6689
      6688      6686      6689      6686      6689      6690      6686      6689      6691
      6686      6689      6692      6690      6689      6691      6690      6689      6692
      6691      6689      6692      6689      6692      6693      6689      6692      6694
      6689      6692      6695      6693      6692      6694      6693      6692      6695
      6694      6692      6695      6692      6695      6696      6692      6695      6697
      6692      6695      6698      6696      6695      6697      6696      6695      6698
      6697      6695      6698      6695      6698      6699      6695      6698      6700
      6695      6698      6701      6699      6698      6700      6699      6698      6701
      6700      6698      6701      6698      6701      6702      6698      6701      6703
      6698      6701      6704      6702      6701      6703      6702      6701      6704
      6703      6701      6704      6701      6704      6705      6701      6704      6706
      6701      6704      6707      6705      6704      6706      6705      6704      6707
      6706      6704      6707      6704      6707      6708      6704      6707      6709
      6704      6707      6710      6708      6707      6709      6708      6707      6710
      6709      6707      6710      6707      6710      6711      6707      6710      6712
      6707      6710      6713      6711      6710      6712      6711      6710      6713
      6712      6710      6713      6710      6713      6714      6710      6713      6715
      6710      6713      6716      6714      6713      6715      6714      6713      6716
      6715      6713      6716      6713      6716      6717      6713      6716      6718
      6713      6716      6719      6717      6716      6718      6717      6716      6719
      6718      6716      6719      6716      6719      6720      6716      6719      6721
      6716      6719      6722      6720      6719      6721      6720      6719      6722
      6721      6719      6722      6719      6722      6723      6719      6722      6724
      6719      6722      6725      6723      6722      6724      6723      6722      6725
      6724      6722      6725      6727      6726      6728      6727      6726      6729
      6727      6726      6730      6728      6726      6729      6728      6726      6730
      6729      6726      6730      6726      6730      6731      6726      6730      6732
      6726      6730      6733      6731      6730      6732      6731      6730      6733
      6732      6730      6733      6730      6733      6734      6730      6733      6735
      6730      6733      6740      6734      6733      6735      6734      6733      6740
      6735      6733      6740      6737      6736      6738      6737      6736      6739
      6737      6736      6740      6738      6736      6739      6738      6736      6740
      6739      6736      6740      6736      6739      6741      6733      6740      6736
      6739      6741      6742      6739      6741      6743      6739      6741      6744
      6742      6741      6743      6742      6741      6744      6743      6741      6744
      6741      6744      6745      6741      6744      6746      6741      6744      6752
      6745      6744      6746      6745      6744      6752      6746      6744      6752
      6744      6746      6747      6746      6747      6748      6746      6747      6749
      6748      6747      6749      6747      6749      6750      6747      6749      6751
      6747      6749      6761      6750      6749      6751      6750      6749      6761
      6751      6749      6761      6744      6752      6753      6744      6752      6754
      6744      6752      6755      6753      6752      6754      6753      6752      6755
      6754      6752      6755      6752      6755      6756      6755      6756      6757
      6755      6756      6758      6757      6756      6758      6756      6758      6759
      6756      6758      6760      6756      6758      6805      6759      6758      6760
      6759      6758      6805      6760      6758      6805      6749      6761      6762
      6749      6761      6763      6749      6761      6764      6762      6761      6763
      6762      6761      6764      6763      6761      6764      6761      6764      6765
      6761      6764      6766      6761      6764      6767      6765      6764      6766
      6765      6764      6767      6766      6764      6767      6764      6767      6768
      6764      6767      6769      6764      6767      6770      6768      6767      6769
      6768      6767      6770      6769      6767      6770      6767      6770      6771
      6767      6770      6772      6767      6770      6773      6771      6770      6772
      6771      6770      6773      6772      6770      6773      6770      6773      6774
      6770      6773      6775      6770      6773      6776      6774      6773      6775
      6774      6773      6776      6775      6773      6776      6773      6776      6777
      6773      6776      6778      6773      6776      6779      6777      6776      6778
      6777      6776      6779      6778      6776      6779      6776      6779      6780
      6776      6779      6781      6776      6779      6784      6780      6779      6781
      6780      6779      6784      6781      6779      6784      6779      6781      6782
      6779      6781      6783      6779      6781      6784      6782      6781      6783
      6782      6781      6784      6783      6781      6784      6779      6784      6781
      6779      6784      6785      6779      6784      6786      6781      6784      6785
      6781      6784      6786      6785      6784      6786      6784      6786      6787
      6784      6786      6788      6784      6786      6789      6787      6786      6788
      6787      6786      6789      6788      6786      6789      6786      6789      6790
      6786      6789      6791      6786      6789      6792      6790      6789      6791
      6790      6789      6792      6791      6789      6792      6789      6792      6793
      6789      6792      6794      6789      6792      6795      6793      6792      6794
      6793      6792      6795      6794      6792      6795      6792      6795      6796
      6792      6795      6797      6792      6795      6798      6796      6795      6797
      6796      6795      6798      6797      6795      6798      6795      6798      6799
      6795      6798      6800      6795      6798      6801      6799      6798      6800
      6799      6798      6801      6800      6798      6801      6798      6801      6802
      6798      6801      6803      6798      6801      6804      6802      6801      6803
      6802      6801      6804      6803      6801      6804      6758      6805      6806
      6758      6805      6807      6758      6805      6808      6806      6805      6807
      6806      6805      6808      6807      6805      6808      6805      6808      6809
      6805      6808      6810      6805      6808      6811      6809      6808      6810
      6809      6808      6811      6810      6808      6811      6808      6811      6812
      6808      6811      6813      6808      6811      6814      6812      6811      6813
      6812      6811      6814      6813      6811      6814      6811      6814      6815
      6811      6814      6816      6811      6814      6817      6815      6814      6816
      6815      6814      6817      6816      6814      6817      6814      6817      6818
      6814      6817      6819      6814      6817      6820      6818      6817      6819
      6818      6817      6820      6819      6817      6820      6817      6820      6821
      6817      6820      6822      6817      6820      6823      6821      6820      6822
      6821      6820      6823      6822      6820      6823      6820      6823      6824
      6820      6823      6825      6820      6823      6826      6824      6823      6825
      6824      6823      6826      6825      6823      6826      6823      6826      6827
      6823      6826      6828      6823      6826      6829      6827      6826      6828
      6827      6826      6829      6828      6826      6829      6826      6829      6830
      6826      6829      6831      6826      6829      6832      6830      6829      6831
      6830      6829      6832      6831      6829      6832      6829      6832      6833
      6829      6832      6834      6829      6832      6835      6833      6832      6834
      6833      6832      6835      6834      6832      6835      6832      6835      6836
      6832      6835      6837      6832      6835      6838      6836      6835      6837
      6836      6835      6838      6837      6835      6838      6835      6838      6839
      6835      6838      6840      6835      6838      6841      6839      6838      6840
      6839      6838      6841      6840      6838      6841      6838      6841      6842
      6838      6841      6843      6838      6841      6844      6842      6841      6843
      6842      6841      6844      6843      6841      6844      6846      6845      6847
      6846      6845      6848      6846      6845      6849      6847      6845      6848
      6847      6845      6849      6848      6845      6849      6845      6849      6850
      6845      6849      6851      6845      6849      6852      6850      6849      6851
      6850      6849      6852      6851      6849      6852      6849      6852      6853
      6849      6852      6854      6849      6852      6859      6853      6852      6854
      6853      6852      6859      6854      6852      6859      6856      6855      6857
      6856      6855      6858      6856      6855      6859      6857      6855      6858
      6857      6855      6859      6858      6855      6859      6855      6858      6860
      6852      6859      6855      6858      6860      6861      6858      6860      6862
      6858      6860      6863      6861      6860      6862      6861      6860      6863
      6862      6860      6863      6860      6863      6864      6860      6863      6865
      6860      6863      6871      6864      6863      6865      6864      6863      6871
      6865      6863      6871      6863      6865      6866      6865      6866      6867
      6865      6866      6868      6867      6866      6868      6866      6868      6869
      6866      6868      6870      6866      6868      6880      6869      6868      6870
      6869      6868      6880      6870      6868      6880      6863      6871      6872
      6863      6871      6873      6863      6871      6874      6872      6871      6873
      6872      6871      6874      6873      6871      6874      6871      6874      6875
      6874      6875      6876      6874      6875      6877      6876      6875      6877
      6875      6877      6878      6875      6877      6879      6875      6877      6924
      6878      6877      6879      6878      6877      6924      6879      6877      6924
      6868      6880      6881      6868      6880      6882      6868      6880      6883
      6881      6880      6882      6881      6880      6883      6882      6880      6883
      6880      6883      6884      6880      6883      6885      6880      6883      6886
      6884      6883      6885      6884      6883      6886      6885      6883      6886
      6883      6886      6887      6883      6886      6888      6883      6886      6889
      6887      6886      6888      6887      6886      6889      6888      6886      6889
      6886      6889      6890      6886      6889      6891      6886      6889      6892
      6890      6889      6891      6890      6889      6892      6891      6889      6892
      6889      6892      6893      6889      6892      6894      6889      6892      6895
      6893      6892      6894      6893      6892      6895      6894      6892      6895
      6892      6895      6896      6892      6895      6897      6892      6895      6898
      6896      6895      6897      6896      6895      6898      6897      6895      6898
      6895      6898      6899      6895      6898      6900      6895      6898      6903
      6899      6898      6900      6899      6898      6903      6900      6898      6903
      6898      6900      6901      6898      6900      6902      6898      6900      6903
      6901      6900      6902      6901      6900      6903      6902      6900      6903
      6898      6903      6900      6898      6903      6904      6898      6903      6905
      6900      6903      6904      6900      6903      6905      6904      6903      6905
      6903      6905      6906      6903      6905      6907      6903      6905      6908
      6906      6905      6907      6906      6905      6908      6907      6905      6908
      6905      6908      6909      6905      6908      6910      6905      6908      6911
      6909      6908      6910      6909      6908      6911      6910      6908      6911
      6908      6911      6912      6908      6911      6913      6908      6911      6914
      6912      6911      6913      6912      6911      6914      6913      6911      6914
      6911      6914      6915      6911      6914      6916      6911      6914      6917
      6915      6914      6916      6915      6914      6917      6916      6914      6917
      6914      6917      6918      6914      6917      6919      6914      6917      6920
      6918      6917      6919      6918      6917      6920      6919      6917      6920
      6917      6920      6921      6917      6920      6922      6917      6920      6923
      6921      6920      6922      6921      6920      6923      6922      6920      6923
      6877      6924      6925      6877      6924      6926      6877      6924      6927
      6925      6924      6926      6925      6924      6927      6926      6924      6927
      6924      6927      6928      6924      6927      6929      6924      6927      6930
      6928      6927      6929      6928      6927      6930      6929      6927      6930
      6927      6930      6931      6927      6930      6932      6927      6930      6933
      6931      6930      6932      6931      6930      6933      6932      6930      6933
      6930      6933      6934      6930      6933      6935      6930      6933      6936
      6934      6933      6935      6934      6933      6936      6935      6933      6936
      6933      6936      6937      6933      6936      6938      6933      6936      6939
      6937      6936      6938      6937      6936      6939      6938      6936      6939
      6936      6939      6940      6936      6939      6941      6936      6939      6942
      6940      6939      6941      6940      6939      6942      6941      6939      6942
      6939      6942      6943      6939      6942      6944      6939      6942      6945
      6943      6942      6944      6943      6942      6945      6944      6942      6945
      6942      6945      6946      6942      6945      6947      6942      6945      6948
      6946      6945      6947      6946      6945      6948      6947      6945      6948
      6945      6948      6949      6945      6948      6950      6945      6948      6951
      6949      6948      6950      6949      6948      6951      6950      6948      6951
      6948      6951      6952      6948      6951      6953      6948      6951      6954
      6952      6951      6953      6952      6951      6954      6953      6951      6954
      6951      6954      6955      6951      6954      6956      6951      6954      6957
      6955      6954      6956      6955      6954      6957      6956      6954      6957
      6954      6957      6958      6954      6957      6959      6954      6957      6960
      6958      6957      6959      6958      6957      6960      6959      6957      6960
      6957      6960      6961      6957      6960      6962      6957      6960      6963
      6961      6960      6962      6961      6960      6963      6962      6960      6963
      6960      6963      6964      6960      6963      6965      6960      6963      6966
      6964      6963      6965      6964      6963      6966      6965      6963      6966
      6968      6967      6969      6968      6967      6970      6968      6967      6971
      6969      6967      6970      6969      6967      6971      6970      6967      6971
      6967      6971      6972      6967      6971      6973      6967      6971      6974
      6972      6971      6973      6972      6971      6974      6973      6971      6974
      6971      6974      6975      6971      6974      6976      6971      6974      6981
      6975      6974      6976      6975      6974      6981      6976      6974      6981
      6978      6977      6979      6978      6977      6980      6978      6977      6981
      6979      6977      6980      6979      6977      6981      6980      6977      6981
      6977      6980      6982      6974      6981      6977      6980      6982      6983
      6980      6982      6984      6980      6982      6985      6983      6982      6984
      6983      6982      6985      6984      6982      6985      6982      6985      6986
      6982      6985      6987      6982      6985      6993      6986      6985      6987
      6986      6985      6993      6987      6985      6993      6985      6987      6988
      6987      6988      6989      6987      6988      6990      6989      6988      6990
      6988      6990      6991      6988      6990      6992      6988      6990      7002
      6991      6990      6992      6991      6990      7002      6992      6990      7002
      6985      6993      6994      6985      6993      6995      6985      6993      6996
      6994      6993      6995      6994      6993      6996      6995      6993      6996
      6993      6996      6997      6996      6997      6998      6996      6997      6999
      6998      6997      6999      6997      6999      7000      6997      6999      7001
      6997      6999      7046      7000      6999      7001      7000      6999      7046
      7001      6999      7046      6990      7002      7003      6990      7002      7004
      6990      7002      7005      7003      7002      7004      7003      7002      7005
      7004      7002      7005      7002      7005      7006      7002      7005      7007
      7002      7005      7008      7006      7005      7007      7006      7005      7008
      7007      7005      7008      7005      7008      7009      7005      7008      7010
      7005      7008      7011      7009      7008      7010      7009      7008      7011
      7010      7008      7011      7008      7011      7012      7008      7011      7013
      7008      7011      7014      7012      7011      7013      7012      7011      7014
      7013      7011      7014      7011      7014      7015      7011      7014      7016
      7011      7014      7017      7015      7014      7016      7015      7014      7017
      7016      7014      7017      7014      7017      7018      7014      7017      7019
      7014      7017      7020      7018      7017      7019      7018      7017      7020
      7019      7017      7020      7017      7020      7021      7017      7020      7022
      7017      7020      7025      7021      7020      7022      7021      7020      7025
      7022      7020      7025      7020      7022      7023      7020      7022      7024
      7020      7022      7025      7023      7022      7024      7023      7022      7025
      7024      7022      7025      7020      7025      7022      7020      7025      7026
      7020      7025      7027      7022      7025      7026      7022      7025      7027
      7026      7025      7027      7025      7027      7028      7025      7027      7029
      7025      7027      7030      7028      7027      7029      7028      7027      7030
      7029      7027      7030      7027      7030      7031      7027      7030      7032
      7027      7030      7033      7031      7030      7032      7031      7030      7033
      7032      7030      7033      7030      7033      7034      7030      7033      7035
      7030      7033      7036      7034      7033      7035      7034      7033      7036
      7035      7033      7036      7033      7036      7037      7033      7036      7038
      7033      7036      7039      7037      7036      7038      7037      7036      7039
      7038      7036      7039      7036      7039      7040      7036      7039      7041
      7036      7039      7042      7040      7039      7041      7040      7039      7042
      7041      7039      7042      7039      7042      7043      7039      7042      7044
      7039      7042      7045      7043      7042      7044      7043      7042      7045
      7044      7042      7045      6999      7046      7047      6999      7046      7048
      6999      7046      7049      7047      7046      7048      7047      7046      7049
      7048      7046      7049      7046      7049      7050      7046      7049      7051
      7046      7049      7052      7050      7049      7051      7050      7049      7052
      7051      7049      7052      7049      7052      7053      7049      7052      7054
      7049      7052      7055      7053      7052      7054      7053      7052      7055
      7054      7052      7055      7052      7055      7056      7052      7055      7057
      7052      7055      7058      7056      7055      7057      7056      7055      7058
      7057      7055      7058      7055      7058      7059      7055      7058      7060
      7055      7058      7061      7059      7058      7060      7059      7058      7061
      7060      7058      7061      7058      7061      7062      7058      7061      7063
      7058      7061      7064      7062      7061      7063      7062      7061      7064
      7063      7061      7064      7061      7064      7065      7061      7064      7066
      7061      7064      7067      7065      7064      7066      7065      7064      7067
      7066      7064      7067      7064      7067      7068      7064      7067      7069
      7064      7067      7070      7068      7067      7069      7068      7067      7070
      7069      7067      7070      7067      7070      7071      7067      7070      7072
      7067      7070      7073      7071      7070      7072      7071      7070      7073
      7072      7070      7073      7070      7073      7074      7070      7073      7075
      7070      7073      7076      7074      7073      7075      7074      7073      7076
      7075      7073      7076      7073      7076      7077      7073      7076      7078
      7073      7076      7079      7077      7076      7078      7077      7076      7079
      7078      7076      7079      7076      7079      7080      7076      7079      7081
      7076      7079      7082      7080      7079      7081      7080      7079      7082
      7081      7079      7082      7079      7082      7083      7079      7082      7084
      7079      7082      7085      7083      7082      7084      7083      7082      7085
      7084      7082      7085      7082      7085      7086      7082      7085      7087
      7082      7085      7088      7086      7085      7087      7086      7085      7088
      7087      7085      7088      7090      7089      7091      7090      7089      7092
      7090      7089      7093      7091      7089      7092      7091      7089      7093
      7092      7089      7093      7089      7093      7094      7089      7093      7095
      7089      7093      7096      7094      7093      7095      7094      7093      7096
      7095      7093      7096      7093      7096      7097      7093      7096      7098
      7093      7096      7103      7097      7096      7098      7097      7096      7103
      7098      7096      7103      7100      7099      7101      7100      7099      7102
      7100      7099      7103      7101      7099      7102      7101      7099      7103
      7102      7099      7103      7099      7102      7104      7096      7103      7099
      7102      7104      7105      7102      7104      7106      7102      7104      7107
      7105      7104      7106      7105      7104      7107      7106      7104      7107
      7104      7107      7108      7104      7107      7109      7104      7107      7115
      7108      7107      7109      7108      7107      7115      7109      7107      7115
      7107      7109      7110      7109      7110      7111      7109      7110      7112
      7111      7110      7112      7110      7112      7113      7110      7112      7114
      7110      7112      7124      7113      7112      7114      7113      7112      7124
      7114      7112      7124      7107      7115      7116      7107      7115      7117
      7107      7115      7118      7116      7115      7117      7116      7115      7118
      7117      7115      7118      7115      7118      7119      7118      7119      7120
      7118      7119      7121      7120      7119      7121      7119      7121      7122
      7119      7121      7123      7119      7121      7168      7122      7121      7123
      7122      7121      7168      7123      7121      7168      7112      7124      7125
      7112      7124      7126      7112      7124      7127      7125      7124      7126
      7125      7124      7127      7126      7124      7127      7124      7127      7128
      7124      7127      7129      7124      7127      7130      7128      7127      7129
      7128      7127      7130      7129      7127      7130      7127      7130      7131
      7127      7130      7132      7127      7130      7133      7131      7130      7132
      7131      7130      7133      7132      7130      7133      7130      7133      7134
      7130      7133      7135      7130      7133      7136      7134      7133      7135
      7134      7133      7136      7135      7133      7136      7133      7136      7137
      7133      7136      7138      7133      7136      7139      7137      7136      7138
      7137      7136      7139      7138      7136      7139      7136      7139      7140
      7136      7139      7141      7136      7139      7142      7140      7139      7141
      7140      7139      7142      7141      7139      7142      7139      7142      7143
      7139      7142      7144      7139      7142      7147      7143      7142      7144
      7143      7142      7147      7144      7142      7147      7142      7144      7145
      7142      7144      7146      7142      7144      7147      7145      7144      7146
      7145      7144      7147      7146      7144      7147      7142      7147      7144
      7142      7147      7148      7142      7147      7149      7144      7147      7148
      7144      7147      7149      7148      7147      7149      7147      7149      7150
      7147      7149      7151      7147      7149      7152      7150      7149      7151
      7150      7149      7152      7151      7149      7152      7149      7152      7153
      7149      7152      7154      7149      7152      7155      7153      7152      7154
      7153      7152      7155      7154      7152      7155      7152      7155      7156
      7152      7155      7157      7152      7155      7158      7156      7155      7157
      7156      7155      7158      7157      7155      7158      7155      7158      7159
      7155      7158      7160      7155      7158      7161      7159      7158      7160
      7159      7158      7161      7160      7158      7161      7158      7161      7162
      7158      7161      7163      7158      7161      7164      7162      7161      7163
      7162      7161      7164      7163      7161      7164      7161      7164      7165
      7161      7164      7166      7161      7164      7167      7165      7164      7166
      7165      7164      7167      7166      7164      7167      7121      7168      7169
      7121      7168      7170      7121      7168      7171      7169      7168      7170
      7169      7168      7171      7170      7168      7171      7168      7171      7172
      7168      7171      7173      7168      7171      7174      7172      7171      7173
      7172      7171      7174      7173      7171      7174      7171      7174      7175
      7171      7174      7176      7171      7174      7177      7175      7174      7176
      7175      7174      7177      7176      7174      7177      7174      7177      7178
      7174      7177      7179      7174      7177      7180      7178      7177      7179
      7178      7177      7180      7179      7177      7180      7177      7180      7181
      7177      7180      7182      7177      7180      7183      7181      7180      7182
      7181      7180      7183      7182      7180      7183      7180      7183      7184
      7180      7183      7185      7180      7183      7186      7184      7183      7185
      7184      7183      7186      7185      7183      7186      7183      7186      7187
      7183      7186      7188      7183      7186      7189      7187      7186      7188
      7187      7186      7189      7188      7186      7189      7186      7189      7190
      7186      7189      7191      7186      7189      7192      7190      7189      7191
      7190      7189      7192      7191      7189      7192      7189      7192      7193
      7189      7192      7194      7189      7192      7195      7193      7192      7194
      7193      7192      7195      7194      7192      7195      7192      7195      7196
      7192      7195      7197      7192      7195      7198      7196      7195      7197
      7196      7195      7198      7197      7195      7198      7195      7198      7199
      7195      7198      7200      7195      7198      7201      7199      7198      7200
      7199      7198      7201      7200      7198      7201      7198      7201      7202
      7198      7201      7203      7198      7201      7204      7202      7201      7203
      7202      7201      7204      7203      7201      7204      7201      7204      7205
      7201      7204      7206      7201      7204      7207      7205      7204      7206
      7205      7204      7207      7206      7204      7207      7204      7207      7208
      7204      7207      7209      7204      7207      7210      7208      7207      7209
      7208      7207      7210      7209      7207      7210      7212      7211      7213
      7212      7211      7214      7212      7211      7215      7213      7211      7214
      7213      7211      7215      7214      7211      7215      7211      7215      7216
      7211      7215      7217      7211      7215      7218      7216      7215      7217
      7216      7215      7218      7217      7215      7218      7215      7218      7219
      7215      7218      7220      7215      7218      7225      7219      7218      7220
      7219      7218      7225      7220      7218      7225      7222      7221      7223
      7222      7221      7224      7222      7221      7225      7223      7221      7224
      7223      7221      7225      7224      7221      7225      7221      7224      7226
      7218      7225      7221      7224      7226      7227      7224      7226      7228
      7224      7226      7229      7227      7226      7228      7227      7226      7229
      7228      7226      7229      7226      7229      7230      7226      7229      7231
      7226      7229      7237      7230      7229      7231      7230      7229      7237
      7231      7229      7237      7229      7231      7232      7231      7232      7233
      7231      7232      7234      7233      7232      7234      7232      7234      7235
      7232      7234      7236      7232      7234      7246      7235      7234      7236
      7235      7234      7246      7236      7234      7246      7229      7237      7238
      7229      7237      7239      7229      7237      7240      7238      7237      7239
      7238      7237      7240      7239      7237      7240      7237      7240      7241
      7240      7241      7242      7240      7241      7243      7242      7241      7243
      7241      7243      7244      7241      7243      7245      7241      7243      7290
      7244      7243      7245      7244      7243      7290      7245      7243      7290
      7234      7246      7247      7234      7246      7248      7234      7246      7249
      7247      7246      7248      7247      7246      7249      7248      7246      7249
      7246      7249      7250      7246      7249      7251      7246      7249      7252
      7250      7249      7251      7250      7249      7252      7251      7249      7252
      7249      7252      7253      7249      7252      7254      7249      7252      7255
      7253      7252      7254      7253      7252      7255      7254      7252      7255
      7252      7255      7256      7252      7255      7257      7252      7255      7258
      7256      7255      7257      7256      7255      7258      7257      7255      7258
      7255      7258      7259      7255      7258      7260      7255      7258      7261
      7259      7258      7260      7259      7258      7261      7260      7258      7261
      7258      7261      7262      7258      7261      7263      7258      7261      7264
      7262      7261      7263      7262      7261      7264      7263      7261      7264
      7261      7264      7265      7261      7264      7266      7261      7264      7269
      7265      7264      7266      7265      7264      7269      7266      7264      7269
      7264      7266      7267      7264      7266      7268      7264      7266      7269
      7267      7266      7268      7267      7266      7269      7268      7266      7269
      7264      7269      7266      7264      7269      7270      7264      7269      7271
      7266      7269      7270      7266      7269      7271      7270      7269      7271
      7269      7271      7272      7269      7271      7273      7269      7271      7274
      7272      7271      7273      7272      7271      7274      7273      7271      7274
      7271      7274      7275      7271      7274      7276      7271      7274      7277
      7275      7274      7276      7275      7274      7277      7276      7274      7277
      7274      7277      7278      7274      7277      7279      7274      7277      7280
      7278      7277      7279      7278      7277      7280      7279      7277      7280
      7277      7280      7281      7277      7280      7282      7277      7280      7283
      7281      7280      7282      7281      7280      7283      7282      7280      7283
      7280      7283      7284      7280      7283      7285      7280      7283      7286
      7284      7283      7285      7284      7283      7286      7285      7283      7286
      7283      7286      7287      7283      7286      7288      7283      7286      7289
      7287      7286      7288      7287      7286      7289      7288      7286      7289
      7243      7290      7291      7243      7290      7292      7243      7290      7293
      7291      7290      7292      7291      7290      7293      7292      7290      7293
      7290      7293      7294      7290      7293      7295      7290      7293      7296
      7294      7293      7295      7294      7293      7296      7295      7293      7296
      7293      7296      7297      7293      7296      7298      7293      7296      7299
      7297      7296      7298      7297      7296      7299      7298      7296      7299
      7296      7299      7300      7296      7299      7301      7296      7299      7302
      7300      7299      7301      7300      7299      7302      7301      7299      7302
      7299      7302      7303      7299      7302      7304      7299      7302      7305
      7303      7302      7304      7303      7302      7305      7304      7302      7305
      7302      7305      7306      7302      7305      7307      7302      7305      7308
      7306      7305      7307      7306      7305      7308      7307      7305      7308
      7305      7308      7309      7305      7308      7310      7305      7308      7311
      7309      7308      7310      7309      7308      7311      7310      7308      7311
      7308      7311      7312      7308      7311      7313      7308      7311      7314
      7312      7311      7313      7312      7311      7314      7313      7311      7314
      7311      7314      7315      7311      7314      7316      7311      7314      7317
      7315      7314      7316      7315      7314      7317      7316      7314      7317
      7314      7317      7318      7314      7317      7319      7314      7317      7320
      7318      7317      7319      7318      7317      7320      7319      7317      7320
      7317      7320      7321      7317      7320      7322      7317      7320      7323
      7321      7320      7322      7321      7320      7323      7322      7320      7323
      7320      7323      7324      7320      7323      7325      7320      7323      7326
      7324      7323      7325      7324      7323      7326      7325      7323      7326
      7323      7326      7327      7323      7326      7328      7323      7326      7329
      7327      7326      7328      7327      7326      7329      7328      7326      7329
      7326      7329      7330      7326      7329      7331      7326      7329      7332
      7330      7329      7331      7330      7329      7332      7331      7329      7332
      7334      7333      7335      7334      7333      7336      7334      7333      7337
      7335      7333      7336      7335      7333      7337      7336      7333      7337
      7333      7337      7338      7333      7337      7339      7333      7337      7340
      7338      7337      7339      7338      7337      7340      7339      7337      7340
      7337      7340      7341      7337      7340      7342      7337      7340      7347
      7341      7340      7342      7341      7340      7347      7342      7340      7347
      7344      7343      7345      7344      7343      7346      7344      7343      7347
      7345      7343      7346      7345      7343      7347      7346      7343      7347
      7343      7346      7348      7340      7347      7343      7346      7348      7349
      7346      7348      7350      7346      7348      7351      7349      7348      7350
      7349      7348      7351      7350      7348      7351      7348      7351      7352
      7348      7351      7353      7348      7351      7359      7352      7351      7353
      7352      7351      7359      7353      7351      7359      7351      7353      7354
      7353      7354      7355      7353      7354      7356      7355      7354      7356
      7354      7356      7357      7354      7356      7358      7354      7356      7368
      7357      7356      7358      7357      7356      7368      7358      7356      7368
      7351      7359      7360      7351      7359      7361      7351      7359      7362
      7360      7359      7361      7360      7359      7362      7361      7359      7362
      7359      7362      7363      7362      7363      7364      7362      7363      7365
      7364      7363      7365      7363      7365      7366      7363      7365      7367
      7363      7365      7412      7366      7365      7367      7366      7365      7412
      7367      7365      7412      7356      7368      7369      7356      7368      7370
      7356      7368      7371      7369      7368      7370      7369      7368      7371
      7370      7368      7371      7368      7371      7372      7368      7371      7373
      7368      7371      7374      7372      7371      7373      7372      7371      7374
      7373      7371      7374      7371      7374      7375      7371      7374      7376
      7371      7374      7377      7375      7374      7376      7375      7374      7377
      7376      7374      7377      7374      7377      7378      7374      7377      7379
      7374      7377      7380      7378      7377      7379      7378      7377      7380
      7379      7377      7380      7377      7380      7381      7377      7380      7382
      7377      7380      7383      7381      7380      7382      7381      7380      7383
      7382      7380      7383      7380      7383      7384      7380      7383      7385
      7380      7383      7386      7384      7383      7385      7384      7383      7386
      7385      7383      7386      7383      7386      7387      7383      7386      7388
      7383      7386      7391      7387      7386      7388      7387      7386      7391
      7388      7386      7391      7386      7388      7389      7386      7388      7390
      7386      7388      7391      7389      7388      7390      7389      7388      7391
      7390      7388      7391      7386      7391      7388      7386      7391      7392
      7386      7391      7393      7388      7391      7392      7388      7391      7393
      7392      7391      7393      7391      7393      7394      7391      7393      7395
      7391      7393      7396      7394      7393      7395      7394      7393      7396
      7395      7393      7396      7393      7396      7397      7393      7396      7398
      7393      7396      7399      7397      7396      7398      7397      7396      7399
      7398      7396      7399      7396      7399      7400      7396      7399      7401
      7396      7399      7402      7400      7399      7401      7400      7399      7402
      7401      7399      7402      7399      7402      7403      7399      7402      7404
      7399      7402      7405      7403      7402      7404      7403      7402      7405
      7404      7402      7405      7402      7405      7406      7402      7405      7407
      7402      7405      7408      7406      7405      7407      7406      7405      7408
      7407      7405      7408      7405      7408      7409      7405      7408      7410
      7405      7408      7411      7409      7408      7410      7409      7408      7411
      7410      7408      7411      7365      7412      7413      7365      7412      7414
      7365      7412      7415      7413      7412      7414      7413      7412      7415
      7414      7412      7415      7412      7415      7416      7412      7415      7417
      7412      7415      7418      7416      7415      7417      7416      7415      7418
      7417      7415      7418      7415      7418      7419      7415      7418      7420
      7415      7418      7421      7419      7418      7420      7419      7418      7421
      7420      7418      7421      7418      7421      7422      7418      7421      7423
      7418      7421      7424      7422      7421      7423      7422      7421      7424
      7423      7421      7424      7421      7424      7425      7421      7424      7426
      7421      7424      7427      7425      7424      7426      7425      7424      7427
      7426      7424      7427      7424      7427      7428      7424      7427      7429
      7424      7427      7430      7428      7427      7429      7428      7427      7430
      7429      7427      7430      7427      7430      7431      7427      7430      7432
      7427      7430      7433      7431      7430      7432      7431      7430      7433
      7432      7430      7433      7430      7433      7434      7430      7433      7435
      7430      7433      7436      7434      7433      7435      7434      7433      7436
      7435      7433      7436      7433      7436      7437      7433      7436      7438
      7433      7436      7439      7437      7436      7438      7437      7436      7439
      7438      7436      7439      7436      7439      7440      7436      7439      7441
      7436      7439      7442      7440      7439      7441      7440      7439      7442
      7441      7439      7442      7439      7442      7443      7439      7442      7444
      7439      7442      7445      7443      7442      7444      7443      7442      7445
      7444      7442      7445      7442      7445      7446      7442      7445      7447
      7442      7445      7448      7446      7445      7447      7446      7445      7448
      7447      7445      7448      7445      7448      7449      7445      7448      7450
      7445      7448      7451      7449      7448      7450      7449      7448      7451
      7450      7448      7451      7448      7451      7452      7448      7451      7453
      7448      7451      7454      7452      7451      7453      7452      7451      7454
      7453      7451      7454      7456      7455      7457      7456      7455      7458
      7456      7455      7460      7457      7455      7458      7457      7455      7460
      7458      7455      7460      7455      7458      7459      7455      7460      7461
      7455      7460      7462      7455      7460      7464      7461      7460      7462
      7461      7460      7464      7462      7460      7464      7460      7462      7463
      7460      7464      7465      7460      7464      7466      7460      7464      7471
      7465      7464      7466      7465      7464      7471      7466      7464      7471
      7468      7467      7469      7468      7467      7470      7468      7467      7471
      7469      7467      7470      7469      7467      7471      7470      7467      7471
      7467      7470      7472      7464      7471      7467      7470      7472      7473
      7470      7472      7474      7470      7472      7475      7473      7472      7474
      7473      7472      7475      7474      7472      7475      7472      7475      7476
      7472      7475      7477      7472      7475      7483      7476      7475      7477
      7476      7475      7483      7477      7475      7483      7475      7477      7478
      7477      7478      7479      7477      7478      7480      7479      7478      7480
      7478      7480      7481      7478      7480      7482      7478      7480      7492
      7481      7480      7482      7481      7480      7492      7482      7480      7492
      7475      7483      7484      7475      7483      7485      7475      7483      7486
      7484      7483      7485      7484      7483      7486      7485      7483      7486
      7483      7486      7487      7486      7487      7488      7486      7487      7489
      7488      7487      7489      7487      7489      7490      7487      7489      7491
      7487      7489      7536      7490      7489      7491      7490      7489      7536
      7491      7489      7536      7480      7492      7493      7480      7492      7494
      7480      7492      7495      7493      7492      7494      7493      7492      7495
      7494      7492      7495      7492      7495      7496      7492      7495      7497
      7492      7495      7498      7496      7495      7497      7496      7495      7498
      7497      7495      7498      7495      7498      7499      7495      7498      7500
      7495      7498      7501      7499      7498      7500      7499      7498      7501
      7500      7498      7501      7498      7501      7502      7498      7501      7503
      7498      7501      7504      7502      7501      7503      7502      7501      7504
      7503      7501      7504      7501      7504      7505      7501      7504      7506
      7501      7504      7507      7505      7504      7506      7505      7504      7507
      7506      7504      7507      7504      7507      7508      7504      7507      7509
      7504      7507      7510      7508      7507      7509      7508      7507      7510
      7509      7507      7510      7507      7510      7511      7507      7510      7512
      7507      7510      7515      7511      7510      7512      7511      7510      7515
      7512      7510      7515      7510      7512      7513      7510      7512      7514
      7510      7512      7515      7513      7512      7514      7513      7512      7515
      7514      7512      7515      7510      7515      7512      7510      7515      7516
      7510      7515      7517      7512      7515      7516      7512      7515      7517
      7516      7515      7517      7515      7517      7518      7515      7517      7519
      7515      7517      7520      7518      7517      7519      7518      7517      7520
      7519      7517      7520      7517      7520      7521      7517      7520      7522
      7517      7520      7523      7521      7520      7522      7521      7520      7523
      7522      7520      7523      7520      7523      7524      7520      7523      7525
      7520      7523      7526      7524      7523      7525      7524      7523      7526
      7525      7523      7526      7523      7526      7527      7523      7526      7528
      7523      7526      7529      7527      7526      7528      7527      7526      7529
      7528      7526      7529      7526      7529      7530      7526      7529      7531
      7526      7529      7532      7530      7529      7531      7530      7529      7532
      7531      7529      7532      7529      7532      7533      7529      7532      7534
      7529      7532      7535      7533      7532      7534      7533      7532      7535
      7534      7532      7535      7489      7536      7537      7489      7536      7538
      7489      7536      7539      7537      7536      7538      7537      7536      7539
      7538      7536      7539      7536      7539      7540      7536      7539      7541
      7536      7539      7542      7540      7539      7541      7540      7539      7542
      7541      7539      7542      7539      7542      7543      7539      7542      7544
      7539      7542      7545      7543      7542      7544      7543      7542      7545
      7544      7542      7545      7542      7545      7546      7542      7545      7547
      7542      7545      7548      7546      7545      7547      7546      7545      7548
      7547      7545      7548      7545      7548      7549      7545      7548      7550
      7545      7548      7551      7549      7548      7550      7549      7548      7551
      7550      7548      7551      7548      7551      7552      7548      7551      7553
      7548      7551      7554      7552      7551      7553      7552      7551      7554
      7553      7551      7554      7551      7554      7555      7551      7554      7556
      7551      7554      7557      7555      7554      7556      7555      7554      7557
      7556      7554      7557      7554      7557      7558      7554      7557      7559
      7554      7557      7560      7558      7557      7559      7558      7557      7560
      7559      7557      7560      7557      7560      7561      7557      7560      7562
      7557      7560      7563      7561      7560      7562      7561      7560      7563
      7562      7560      7563      7560      7563      7564      7560      7563      7565
      7560      7563      7566      7564      7563      7565      7564      7563      7566
      7565      7563      7566      7563      7566      7567      7563      7566      7568
      7563      7566      7569      7567      7566      7568      7567      7566      7569
      7568      7566      7569      7566      7569      7570      7566      7569      7571
      7566      7569      7572      7570      7569      7571      7570      7569      7572
      7571      7569      7572      7569      7572      7573      7569      7572      7574
      7569      7572      7575      7573      7572      7574      7573      7572      7575
      7574      7572      7575      7572      7575      7576      7572      7575      7577
      7572      7575      7578      7576      7575      7577      7576      7575      7578
      7577      7575      7578      7580      7579      7581      7580      7579      7582
      7580      7579      7583      7581      7579      7582      7581      7579      7583
      7582      7579      7583      7579      7583      7584      7579      7583      7585
      7579      7583      7586      7584      7583      7585      7584      7583      7586
      7585      7583      7586      7583      7586      7587      7583      7586      7588
      7583      7586      7593      7587      7586      7588      7587      7586      7593
      7588      7586      7593      7590      7589      7591      7590      7589      7592
      7590      7589      7593      7591      7589      7592      7591      7589      7593
      7592      7589      7593      7589      7592      7594      7586      7593      7589
      7592      7594      7595      7592      7594      7596      7592      7594      7597
      7595      7594      7596      7595      7594      7597      7596      7594      7597
      7594      7597      7598      7594      7597      7599      7594      7597      7605
      7598      7597      7599      7598      7597      7605      7599      7597      7605
      7597      7599      7600      7599      7600      7601      7599      7600      7602
      7601      7600      7602      7600      7602      7603      7600      7602      7604
      7600      7602      7614      7603      7602      7604      7603      7602      7614
      7604      7602      7614      7597      7605      7606      7597      7605      7607
      7597      7605      7608      7606      7605      7607      7606      7605      7608
      7607      7605      7608      7605      7608      7609      7608      7609      7610
      7608      7609      7611      7610      7609      7611      7609      7611      7612
      7609      7611      7613      7609      7611      7661      7612      7611      7613
      7612      7611      7661      7613      7611      7661      7602      7614      7615
      7602      7614      7616      7602      7614      7617      7615      7614      7616
      7615      7614      7617      7616      7614      7617      7614      7617      7618
      7614      7617      7619      7614      7617      7620      7618      7617      7619
      7618      7617      7620      7619      7617      7620      7617      7620      7621
      7617      7620      7622      7617      7620      7623      7621      7620      7622
      7621      7620      7623      7622      7620      7623      7620      7623      7624
      7620      7623      7625      7620      7623      7626      7624      7623      7625
      7624      7623      7626      7625      7623      7626      7623      7626      7627
      7623      7626      7628      7623      7626      7629      7627      7626      7628
      7627      7626      7629      7628      7626      7629      7626      7629      7630
      7626      7629      7631      7626      7629      7632      7630      7629      7631
      7630      7629      7632      7631      7629      7632      7629      7632      7633
      7629      7632      7634      7633      7632      7634      7632      7634      7635
      7632      7634      7636      7635      7634      7636      7634      7636      7637
      7634      7636      7638      7634      7636      7639      7637      7636      7638
      7637      7636      7639      7638      7636      7639      7636      7639      7640
      7636      7639      7641      7636      7639      7642      7640      7639      7641
      7640      7639      7642      7641      7639      7642      7639      7642      7643
      7639      7642      7644      7639      7642      7645      7643      7642      7644
      7643      7642      7645      7644      7642      7645      7642      7645      7646
      7642      7645      7647      7642      7645      7648      7646      7645      7647
      7646      7645      7648      7647      7645      7648      7645      7648      7649
      7645      7648      7650      7645      7648      7651      7649      7648      7650
      7649      7648      7651      7650      7648      7651      7648      7651      7652
      7648      7651      7653      7648      7651      7654      7652      7651      7653
      7652      7651      7654      7653      7651      7654      7651      7654      7655
      7651      7654      7656      7651      7654      7657      7655      7654      7656
      7655      7654      7657      7656      7654      7657      7654      7657      7658
      7654      7657      7659      7654      7657      7660      7658      7657      7659
      7658      7657      7660      7659      7657      7660      7611      7661      7662
      7611      7661      7663      7611      7661      7664      7662      7661      7663
      7662      7661      7664      7663      7661      7664      7661      7664      7665
      7661      7664      7666      7661      7664      7667      7665      7664      7666
      7665      7664      7667      7666      7664      7667      7664      7667      7668
      7664      7667      7669      7664      7667      7670      7668      7667      7669
      7668      7667      7670      7669      7667      7670      7667      7670      7671
      7667      7670      7672      7667      7670      7673      7671      7670      7672
      7671      7670      7673      7672      7670      7673      7670      7673      7674
      7670      7673      7675      7670      7673      7676      7674      7673      7675
      7674      7673      7676      7675      7673      7676      7673      7676      7677
      7673      7676      7678      7673      7676      7679      7677      7676      7678
      7677      7676      7679      7678      7676      7679      7676      7679      7680
      7676      7679      7681      7676      7679      7682      7680      7679      7681
      7680      7679      7682      7681      7679      7682      7679      7682      7683
      7679      7682      7684      7679      7682      7685      7683      7682      7684
      7683      7682      7685      7684      7682      7685      7682      7685      7686
      7682      7685      7687      7682      7685      7688      7686      7685      7687
      7686      7685      7688      7687      7685      7688      7685      7688      7689
      7685      7688      7690      7685      7688      7691      7689      7688      7690
      7689      7688      7691      7690      7688      7691      7688      7691      7692
      7688      7691      7693      7688      7691      7694      7692      7691      7693
      7692      7691      7694      7693      7691      7694      7691      7694      7695
      7691      7694      7696      7691      7694      7697      7695      7694      7696
      7695      7694      7697      7696      7694      7697      7694      7697      7698
      7694      7697      7699      7694      7697      7700      7698      7697      7699
      7698      7697      7700      7699      7697      7700      7697      7700      7701
      7697      7700      7702      7697      7700      7703      7701      7700      7702
      7701      7700      7703      7702      7700      7703      7705      7704      7706
      7705      7704      7710      7705      7704      7715      7706      7704      7710
      7706      7704      7715      7710      7704      7715      7708      7707      7709
      7708      7707      7710      7708      7707      7711      7709      7707      7710
      7709      7707      7711      7710      7707      7711      7704      7710      7707
      7707      7711      7712      7711      7712      7713      7711      7712      7714
      7711      7712      7747      7713      7712      7714      7713      7712      7747
      7714      7712      7747      7704      7715      7716      7704      7715      7717
      7704      7715      7719      7716      7715      7717      7716      7715      7719
      7717      7715      7719      7715      7717      7718      7715      7719      7720
      7715      7719      7721      7715      7719      7725      7720      7719      7721
      7720      7719      7725      7721      7719      7725      7723      7722      7724
      7723      7722      7725      7723      7722      7726      7724      7722      7725
      7724      7722      7726      7725      7722      7726      7719      7725      7722
      7722      7726      7727      7726      7727      7728      7726      7727      7729
      7726      7727      7730      7728      7727      7729      7728      7727      7730
      7729      7727      7730      7727      7730      7731      7727      7730      7732
      7727      7730      7738      7731      7730      7732      7731      7730      7738
      7732      7730      7738      7730      7732      7733      7732      7733      7734
      7732      7733      7735      7734      7733      7735      7733      7735      7736
      7733      7735      7737      7733      7735      7764      7736      7735      7737
      7736      7735      7764      7737      7735      7764      7730      7738      7739
      7730      7738      7740      7730      7738      7741      7739      7738      7740
      7739      7738      7741      7740      7738      7741      7738      7741      7742
      7741      7742      7743      7741      7742      7744      7743      7742      7744
      7742      7744      7745      7742      7744      7746      7742      7744      7811
      7745      7744      7746      7745      7744      7811      7746      7744      7811
      7712      7747      7748      7712      7747      7749      7712      7747      7755
      7748      7747      7749      7748      7747      7755      7749      7747      7755
      7747      7749      7750      7749      7750      7751      7749      7750      7752
      7751      7750      7752      7750      7752      7753      7750      7752      7754
      7750      7752      7854      7753      7752      7754      7753      7752      7854
      7754      7752      7854      7747      7755      7756      7747      7755      7757
      7747      7755      7758      7756      7755      7757      7756      7755      7758
      7757      7755      7758      7755      7758      7759      7758      7759      7760
      7758      7759      7761      7760      7759      7761      7759      7761      7762
      7759      7761      7763      7759      7761      7901      7762      7761      7763
      7762      7761      7901      7763      7761      7901      7735      7764      7765
      7735      7764      7766      7735      7764      7767      7765      7764      7766
      7765      7764      7767      7766      7764      7767      7764      7767      7768
      7764      7767      7769      7764      7767      7770      7768      7767      7769
      7768      7767      7770      7769      7767      7770      7767      7770      7771
      7767      7770      7772      7767      7770      7773      7771      7770      7772
      7771      7770      7773      7772      7770      7773      7770      7773      7774
      7770      7773      7775      7770      7773      7776      7774      7773      7775
      7774      7773      7776      7775      7773      7776      7773      7776      7777
      7773      7776      7778      7773      7776      7779      7777      7776      7778
      7777      7776      7779      7778      7776      7779      7776      7779      7780
      7776      7779      7781      7776      7779      7782      7780      7779      7781
      7780      7779      7782      7781      7779      7782      7779      7782      7783
      7779      7782      7784      7779      7782      7785      7783      7782      7784
      7783      7782      7785      7784      7782      7785      7782      7785      7786
      7782      7785      7787      7782      7785      7788      7786      7785      7787
      7786      7785      7788      7787      7785      7788      7785      7788      7789
      7785      7788      7790      7789      7788      7790      7788      7790      7791
      7788      7790      7792      7791      7790      7792      7790      7792      7793
      7790      7792      7794      7790      7792      7795      7793      7792      7794
      7793      7792      7795      7794      7792      7795      7792      7795      7796
      7792      7795      7797      7792      7795      7798      7796      7795      7797
      7796      7795      7798      7797      7795      7798      7795      7798      7799
      7795      7798      7800      7795      7798      7801      7799      7798      7800
      7799      7798      7801      7800      7798      7801      7798      7801      7802
      7798      7801      7803      7798      7801      7804      7802      7801      7803
      7802      7801      7804      7803      7801      7804      7801      7804      7805
      7801      7804      7806      7801      7804      7807      7805      7804      7806
      7805      7804      7807      7806      7804      7807      7804      7807      7808
      7804      7807      7809      7804      7807      7810      7808      7807      7809
      7808      7807      7810      7809      7807      7810      7744      7811      7812
      7744      7811      7813      7744      7811      7814      7812      7811      7813
      7812      7811      7814      7813      7811      7814      7811      7814      7815
      7811      7814      7816      7811      7814      7817      7815      7814      7816
      7815      7814      7817      7816      7814      7817      7814      7817      7818
      7814      7817      7819      7814      7817      7820      7818      7817      7819
      7818      7817      7820      7819      7817      7820      7817      7820      7821
      7817      7820      7822      7817      7820      7823      7821      7820      7822
      7821      7820      7823      7822      7820      7823      7820      7823      7824
      7820      7823      7825      7820      7823      7826      7824      7823      7825
      7824      7823      7826      7825      7823      7826      7823      7826      7827
      7823      7826      7828      7823      7826      7829      7827      7826      7828
      7827      7826      7829      7828      7826      7829      7826      7829      7830
      7826      7829      7831      7826      7829      7832      7830      7829      7831
      7830      7829      7832      7831      7829      7832      7829      7832      7833
      7829      7832      7834      7829      7832      7835      7833      7832      7834
      7833      7832      7835      7834      7832      7835      7832      7835      7836
      7832      7835      7837      7832      7835      7838      7836      7835      7837
      7836      7835      7838      7837      7835      7838      7835      7838      7839
      7835      7838      7840      7835      7838      7841      7839      7838      7840
      7839      7838      7841      7840      7838      7841      7838      7841      7842
      7838      7841      7843      7838      7841      7844      7842      7841      7843
      7842      7841      7844      7843      7841      7844      7841      7844      7845
      7841      7844      7846      7841      7844      7847      7845      7844      7846
      7845      7844      7847      7846      7844      7847      7844      7847      7848
      7844      7847      7849      7844      7847      7850      7848      7847      7849
      7848      7847      7850      7849      7847      7850      7847      7850      7851
      7847      7850      7852      7847      7850      7853      7851      7850      7852
      7851      7850      7853      7852      7850      7853      7752      7854      7855
      7752      7854      7856      7752      7854      7857      7855      7854      7856
      7855      7854      7857      7856      7854      7857      7854      7857      7858
      7854      7857      7859      7854      7857      7860      7858      7857      7859
      7858      7857      7860      7859      7857      7860      7857      7860      7861
      7857      7860      7862      7857      7860      7863      7861      7860      7862
      7861      7860      7863      7862      7860      7863      7860      7863      7864
      7860      7863      7865      7860      7863      7866      7864      7863      7865
      7864      7863      7866      7865      7863      7866      7863      7866      7867
      7863      7866      7868      7863      7866      7869      7867      7866      7868
      7867      7866      7869      7868      7866      7869      7866      7869      7870
      7866      7869      7871      7866      7869      7872      7870      7869      7871
      7870      7869      7872      7871      7869      7872      7869      7872      7873
      7869      7872      7874      7869      7872      7875      7873      7872      7874
      7873      7872      7875      7874      7872      7875      7872      7875      7876
      7872      7875      7877      7872      7875      7878      7876      7875      7877
      7876      7875      7878      7877      7875      7878      7875      7878      7879
      7875      7878      7880      7879      7878      7880      7878      7880      7881
      7878      7880      7882      7881      7880      7882      7880      7882      7883
      7880      7882      7884      7880      7882      7885      7883      7882      7884
      7883      7882      7885      7884      7882      7885      7882      7885      7886
      7882      7885      7887      7882      7885      7888      7886      7885      7887
      7886      7885      7888      7887      7885      7888      7885      7888      7889
      7885      7888      7890      7885      7888      7891      7889      7888      7890
      7889      7888      7891      7890      7888      7891      7888      7891      7892
      7888      7891      7893      7888      7891      7894      7892      7891      7893
      7892      7891      7894      7893      7891      7894      7891      7894      7895
      7891      7894      7896      7891      7894      7897      7895      7894      7896
      7895      7894      7897      7896      7894      7897      7894      7897      7898
      7894      7897      7899      7894      7897      7900      7898      7897      7899
      7898      7897      7900      7899      7897      7900      7761      7901      7902
      7761      7901      7903      7761      7901      7904      7902      7901      7903
      7902      7901      7904      7903      7901      7904      7901      7904      7905
      7901      7904      7906      7901      7904      7907      7905      7904      7906
      7905      7904      7907      7906      7904      7907      7904      7907      7908
      7904      7907      7909      7904      7907      7910      7908      7907      7909
      7908      7907      7910      7909      7907      7910      7907      7910      7911
      7907      7910      7912      7907      7910      7913      7911      7910      7912
      7911      7910      7913      7912      7910      7913      7910      7913      7914
      7910      7913      7915      7910      7913      7916      7914      7913      7915
      7914      7913      7916      7915      7913      7916      7913      7916      7917
      7913      7916      7918      7913      7916      7919      7917      7916      7918
      7917      7916      7919      7918      7916      7919      7916      7919      7920
      7916      7919      7921      7916      7919      7922      7920      7919      7921
      7920      7919      7922      7921      7919      7922      7919      7922      7923
      7919      7922      7924      7919      7922      7925      7923      7922      7924
      7923      7922      7925      7924      7922      7925      7922      7925      7926
      7922      7925      7927      7922      7925      7928      7926      7925      7927
      7926      7925      7928      7927      7925      7928      7925      7928      7929
      7925      7928      7930      7925      7928      7931      7929      7928      7930
      7929      7928      7931      7930      7928      7931      7928      7931      7932
      7928      7931      7933      7928      7931      7934      7932      7931      7933
      7932      7931      7934      7933      7931      7934      7931      7934      7935
      7931      7934      7936      7931      7934      7937      7935      7934      7936
      7935      7934      7937      7936      7934      7937      7934      7937      7938
      7934      7937      7939      7934      7937      7940      7938      7937      7939
      7938      7937      7940      7939      7937      7940      7937      7940      7941
      7937      7940      7942      7937      7940      7943      7941      7940      7942
      7941      7940      7943      7942      7940      7943      7945      7944      7946
      7945      7944      7947      7945      7944      7948      7946      7944      7947
      7946      7944      7948      7947      7944      7948      7944      7948      7949
      7944      7948      7950      7944      7948      7951      7949      7948      7950
      7949      7948      7951      7950      7948      7951      7948      7951      7952
      7948      7951      7953      7948      7951      7958      7952      7951      7953
      7952      7951      7958      7953      7951      7958      7955      7954      7956
      7955      7954      7957      7955      7954      7958      7956      7954      7957
      7956      7954      7958      7957      7954      7958      7954      7957      7959
      7951      7958      7954      7957      7959      7960      7957      7959      7961
      7957      7959      7962      7960      7959      7961      7960      7959      7962
      7961      7959      7962      7959      7962      7963      7959      7962      7964
      7959      7962      7970      7963      7962      7964      7963      7962      7970
      7964      7962      7970      7962      7964      7965      7964      7965      7966
      7964      7965      7967      7966      7965      7967      7965      7967      7968
      7965      7967      7969      7965      7967      7979      7968      7967      7969
      7968      7967      7979      7969      7967      7979      7962      7970      7971
      7962      7970      7972      7962      7970      7973      7971      7970      7972
      7971      7970      7973      7972      7970      7973      7970      7973      7974
      7973      7974      7975      7973      7974      7976      7975      7974      7976
      7974      7976      7977      7974      7976      7978      7974      7976      8026
      7977      7976      7978      7977      7976      8026      7978      7976      8026
      7967      7979      7980      7967      7979      7981      7967      7979      7982
      7980      7979      7981      7980      7979      7982      7981      7979      7982
      7979      7982      7983      7979      7982      7984      7979      7982      7985
      7983      7982      7984      7983      7982      7985      7984      7982      7985
      7982      7985      7986      7982      7985      7987      7982      7985      7988
      7986      7985      7987      7986      7985      7988      7987      7985      7988
      7985      7988      7989      7985      7988      7990      7985      7988      7991
      7989      7988      7990      7989      7988      7991      7990      7988      7991
      7988      7991      7992      7988      7991      7993      7988      7991      7994
      7992      7991      7993      7992      7991      7994      7993      7991      7994
      7991      7994      7995      7991      7994      7996      7991      7994      7997
      7995      7994      7996      7995      7994      7997      7996      7994      7997
      7994      7997      7998      7994      7997      7999      7998      7997      7999
      7997      7999      8000      7997      7999      8001      8000      7999      8001
      7999      8001      8002      7999      8001      8003      7999      8001      8004
      8002      8001      8003      8002      8001      8004      8003      8001      8004
      8001      8004      8005      8001      8004      8006      8001      8004      8007
      8005      8004      8006      8005      8004      8007      8006      8004      8007
      8004      8007      8008      8004      8007      8009      8004      8007      8010
      8008      8007      8009      8008      8007      8010      8009      8007      8010
      8007      8010      8011      8007      8010      8012      8007      8010      8013
      8011      8010      8012      8011      8010      8013      8012      8010      8013
      8010      8013      8014      8010      8013      8015      8010      8013      8016
      8014      8013      8015      8014      8013      8016      8015      8013      8016
      8013      8016      8017      8013      8016      8018      8013      8016      8019
      8017      8016      8018      8017      8016      8019      8018      8016      8019
      8016      8019      8020      8016      8019      8021      8016      8019      8022
      8020      8019      8021      8020      8019      8022      8021      8019      8022
      8019      8022      8023      8019      8022      8024      8019      8022      8025
      8023      8022      8024      8023      8022      8025      8024      8022      8025
      7976      8026      8027      7976      8026      8028      7976      8026      8029
      8027      8026      8028      8027      8026      8029      8028      8026      8029
      8026      8029      8030      8026      8029      8031      8026      8029      8032
      8030      8029      8031      8030      8029      8032      8031      8029      8032
      8029      8032      8033      8029      8032      8034      8029      8032      8035
      8033      8032      8034      8033      8032      8035      8034      8032      8035
      8032      8035      8036      8032      8035      8037      8032      8035      8038
      8036      8035      8037      8036      8035      8038      8037      8035      8038
      8035      8038      8039      8035      8038      8040      8035      8038      8041
      8039      8038      8040      8039      8038      8041      8040      8038      8041
      8038      8041      8042      8038      8041      8043      8038      8041      8044
      8042      8041      8043      8042      8041      8044      8043      8041      8044
      8041      8044      8045      8041      8044      8046      8041      8044      8047
      8045      8044      8046      8045      8044      8047      8046      8044      8047
      8044      8047      8048      8044      8047      8049      8044      8047      8050
      8048      8047      8049      8048      8047      8050      8049      8047      8050
      8047      8050      8051      8047      8050      8052      8047      8050      8053
      8051      8050      8052      8051      8050      8053      8052      8050      8053
      8050      8053      8054      8050      8053      8055      8050      8053      8056
      8054      8053      8055      8054      8053      8056      8055      8053      8056
      8053      8056      8057      8053      8056      8058      8053      8056      8059
      8057      8056      8058      8057      8056      8059      8058      8056      8059
      8056      8059      8060      8056      8059      8061      8056      8059      8062
      8060      8059      8061      8060      8059      8062      8061      8059      8062
      8059      8062      8063      8059      8062      8064      8059      8062      8065
      8063      8062      8064      8063      8062      8065      8064      8062      8065
      8062      8065      8066      8062      8065      8067      8062      8065      8068
      8066      8065      8067      8066      8065      8068      8067      8065      8068
      8070      8069      8071      8070      8069      8072      8070      8069      8073
      8071      8069      8072      8071      8069      8073      8072      8069      8073
      8069      8073      8074      8069      8073      8075      8069      8073      8076
      8074      8073      8075      8074      8073      8076      8075      8073      8076
      8073      8076      8077      8073      8076      8078      8073      8076      8083
      8077      8076      8078      8077      8076      8083      8078      8076      8083
      8080      8079      8081      8080      8079      8082      8080      8079      8083
      8081      8079      8082      8081      8079      8083      8082      8079      8083
      8079      8082      8084      8076      8083      8079      8082      8084      8085
      8082      8084      8086      8082      8084      8087      8085      8084      8086
      8085      8084      8087      8086      8084      8087      8084      8087      8088
      8084      8087      8089      8084      8087      8095      8088      8087      8089
      8088      8087      8095      8089      8087      8095      8087      8089      8090
      8089      8090      8091      8089      8090      8092      8091      8090      8092
      8090      8092      8093      8090      8092      8094      8090      8092      8104
      8093      8092      8094      8093      8092      8104      8094      8092      8104
      8087      8095      8096      8087      8095      8097      8087      8095      8098
      8096      8095      8097      8096      8095      8098      8097      8095      8098
      8095      8098      8099      8098      8099      8100      8098      8099      8101
      8100      8099      8101      8099      8101      8102      8099      8101      8103
      8099      8101      8145      8102      8101      8103      8102      8101      8145
      8103      8101      8145      8092      8104      8105      8092      8104      8106
      8092      8104      8107      8105      8104      8106      8105      8104      8107
      8106      8104      8107      8104      8107      8108      8104      8107      8109
      8104      8107      8110      8108      8107      8109      8108      8107      8110
      8109      8107      8110      8107      8110      8111      8107      8110      8112
      8107      8110      8113      8111      8110      8112      8111      8110      8113
      8112      8110      8113      8110      8113      8114      8110      8113      8115
      8110      8113      8116      8114      8113      8115      8114      8113      8116
      8115      8113      8116      8113      8116      8117      8113      8116      8118
      8113      8116      8119      8117      8116      8118      8117      8116      8119
      8118      8116      8119      8116      8119      8120      8116      8119      8121
      8116      8119      8122      8120      8119      8121      8120      8119      8122
      8121      8119      8122      8119      8122      8123      8119      8122      8124
      8123      8122      8124      8122      8124      8125      8122      8124      8126
      8125      8124      8126      8124      8126      8127      8124      8126      8128
      8124      8126      8129      8127      8126      8128      8127      8126      8129
      8128      8126      8129      8126      8129      8130      8126      8129      8131
      8126      8129      8132      8130      8129      8131      8130      8129      8132
      8131      8129      8132      8129      8132      8133      8129      8132      8134
      8129      8132      8135      8133      8132      8134      8133      8132      8135
      8134      8132      8135      8132      8135      8136      8132      8135      8137
      8132      8135      8138      8136      8135      8137      8136      8135      8138
      8137      8135      8138      8135      8138      8139      8135      8138      8140
      8135      8138      8141      8139      8138      8140      8139      8138      8141
      8140      8138      8141      8138      8141      8142      8138      8141      8143
      8138      8141      8144      8142      8141      8143      8142      8141      8144
      8143      8141      8144      8101      8145      8146      8101      8145      8147
      8101      8145      8148      8146      8145      8147      8146      8145      8148
      8147      8145      8148      8145      8148      8149      8145      8148      8150
      8145      8148      8151      8149      8148      8150      8149      8148      8151
      8150      8148      8151      8148      8151      8152      8148      8151      8153
      8148      8151      8154      8152      8151      8153      8152      8151      8154
      8153      8151      8154      8151      8154      8155      8151      8154      8156
      8151      8154      8157      8155      8154      8156      8155      8154      8157
      8156      8154      8157      8154      8157      8158      8154      8157      8159
      8154      8157      8160      8158      8157      8159      8158      8157      8160
      8159      8157      8160      8157      8160      8161      8157      8160      8162
      8157      8160      8163      8161      8160      8162      8161      8160      8163
      8162      8160      8163      8160      8163      8164      8160      8163      8165
      8164      8163      8165      8163      8165      8166      8163      8165      8167
      8166      8165      8167      8165      8167      8168      8165      8167      8169
      8165      8167      8170      8168      8167      8169      8168      8167      8170
      8169      8167      8170      8167      8170      8171      8167      8170      8172
      8167      8170      8173      8171      8170      8172      8171      8170      8173
      8172      8170      8173      8170      8173      8174      8170      8173      8175
      8170      8173      8176      8174      8173      8175      8174      8173      8176
      8175      8173      8176      8173      8176      8177      8173      8176      8178
      8173      8176      8179      8177      8176      8178      8177      8176      8179
      8178      8176      8179      8176      8179      8180      8176      8179      8181
      8176      8179      8182      8180      8179      8181      8180      8179      8182
      8181      8179      8182      8179      8182      8183      8179      8182      8184
      8179      8182      8185      8183      8182      8184      8183      8182      8185
      8184      8182      8185      8182      8185      8186      8182      8185      8187
      8182      8185      8188      8186      8185      8187      8186      8185      8188
      8187      8185      8188      8185      8188      8189      8185      8188      8190
      8185      8188      8191      8189      8188      8190      8189      8188      8191
      8190      8188      8191      8193      8192      8194      8193      8192      8195
      8193      8192      8196      8194      8192      8195      8194      8192      8196
      8195      8192      8196      8192      8196      8197      8192      8196      8198
      8192      8196      8199      8197      8196      8198      8197      8196      8199
      8198      8196      8199      8196      8199      8200      8196      8199      8201
      8196      8199      8206      8200      8199      8201      8200      8199      8206
      8201      8199      8206      8203      8202      8204      8203      8202      8205
      8203      8202      8206      8204      8202      8205      8204      8202      8206
      8205      8202      8206      8202      8205      8207      8199      8206      8202
      8205      8207      8208      8205      8207      8209      8205      8207      8210
      8208      8207      8209      8208      8207      8210      8209      8207      8210
      8207      8210      8211      8207      8210      8212      8207      8210      8218
      8211      8210      8212      8211      8210      8218      8212      8210      8218
      8210      8212      8213      8212      8213      8214      8212      8213      8215
      8214      8213      8215      8213      8215      8216      8213      8215      8217
      8213      8215      8227      8216      8215      8217      8216      8215      8227
      8217      8215      8227      8210      8218      8219      8210      8218      8220
      8210      8218      8221      8219      8218      8220      8219      8218      8221
      8220      8218      8221      8218      8221      8222      8221      8222      8223
      8221      8222      8224      8223      8222      8224      8222      8224      8225
      8222      8224      8226      8222      8224      8271      8225      8224      8226
      8225      8224      8271      8226      8224      8271      8215      8227      8228
      8215      8227      8229      8215      8227      8230      8228      8227      8229
      8228      8227      8230      8229      8227      8230      8227      8230      8231
      8227      8230      8232      8227      8230      8233      8231      8230      8232
      8231      8230      8233      8232      8230      8233      8230      8233      8234
      8230      8233      8235      8230      8233      8236      8234      8233      8235
      8234      8233      8236      8235      8233      8236      8233      8236      8237
      8233      8236      8238      8233      8236      8239      8237      8236      8238
      8237      8236      8239      8238      8236      8239      8236      8239      8240
      8236      8239      8241      8236      8239      8242      8240      8239      8241
      8240      8239      8242      8241      8239      8242      8239      8242      8243
      8239      8242      8244      8239      8242      8245      8243      8242      8244
      8243      8242      8245      8244      8242      8245      8242      8245      8246
      8242      8245      8247      8242      8245      8250      8246      8245      8247
      8246      8245      8250      8247      8245      8250      8245      8247      8248
      8245      8247      8249      8245      8247      8250      8248      8247      8249
      8248      8247      8250      8249      8247      8250      8245      8250      8247
      8245      8250      8251      8245      8250      8252      8247      8250      8251
      8247      8250      8252      8251      8250      8252      8250      8252      8253
      8250      8252      8254      8250      8252      8255      8253      8252      8254
      8253      8252      8255      8254      8252      8255      8252      8255      8256
      8252      8255      8257      8252      8255      8258      8256      8255      8257
      8256      8255      8258      8257      8255      8258      8255      8258      8259
      8255      8258      8260      8255      8258      8261      8259      8258      8260
      8259      8258      8261      8260      8258      8261      8258      8261      8262
      8258      8261      8263      8258      8261      8264      8262      8261      8263
      8262      8261      8264      8263      8261      8264      8261      8264      8265
      8261      8264      8266      8261      8264      8267      8265      8264      8266
      8265      8264      8267      8266      8264      8267      8264      8267      8268
      8264      8267      8269      8264      8267      8270      8268      8267      8269
      8268      8267      8270      8269      8267      8270      8224      8271      8272
      8224      8271      8273      8224      8271      8274      8272      8271      8273
      8272      8271      8274      8273      8271      8274      8271      8274      8275
      8271      8274      8276      8271      8274      8277      8275      8274      8276
      8275      8274      8277      8276      8274      8277      8274      8277      8278
      8274      8277      8279      8274      8277      8280      8278      8277      8279
      8278      8277      8280      8279      8277      8280      8277      8280      8281
      8277      8280      8282      8277      8280      8283      8281      8280      8282
      8281      8280      8283      8282      8280      8283      8280      8283      8284
      8280      8283      8285      8280      8283      8286      8284      8283      8285
      8284      8283      8286      8285      8283      8286      8283      8286      8287
      8283      8286      8288      8283      8286      8289      8287      8286      8288
      8287      8286      8289      8288      8286      8289      8286      8289      8290
      8286      8289      8291      8286      8289      8292      8290      8289      8291
      8290      8289      8292      8291      8289      8292      8289      8292      8293
      8289      8292      8294      8289      8292      8295      8293      8292      8294
      8293      8292      8295      8294      8292      8295      8292      8295      8296
      8292      8295      8297      8292      8295      8298      8296      8295      8297
      8296      8295      8298      8297      8295      8298      8295      8298      8299
      8295      8298      8300      8295      8298      8301      8299      8298      8300
      8299      8298      8301      8300      8298      8301      8298      8301      8302
      8298      8301      8303      8298      8301      8304      8302      8301      8303
      8302      8301      8304      8303      8301      8304      8301      8304      8305
      8301      8304      8306      8301      8304      8307      8305      8304      8306
      8305      8304      8307      8306      8304      8307      8304      8307      8308
      8304      8307      8309      8304      8307      8310      8308      8307      8309
      8308      8307      8310      8309      8307      8310      8307      8310      8311
      8307      8310      8312      8307      8310      8313      8311      8310      8312
      8311      8310      8313      8312      8310      8313      8315      8314      8316
      8315      8314      8317      8315      8314      8319      8316      8314      8317
      8316      8314      8319      8317      8314      8319      8314      8317      8318
      8314      8319      8320      8314      8319      8321      8314      8319      8323
      8320      8319      8321      8320      8319      8323      8321      8319      8323
      8319      8321      8322      8319      8323      8324      8319      8323      8325
      8319      8323      8330      8324      8323      8325      8324      8323      8330
      8325      8323      8330      8327      8326      8328      8327      8326      8329
      8327      8326      8330      8328      8326      8329      8328      8326      8330
      8329      8326      8330      8326      8329      8331      8323      8330      8326
      8329      8331      8332      8329      8331      8333      8329      8331      8334
      8332      8331      8333      8332      8331      8334      8333      8331      8334
      8331      8334      8335      8331      8334      8336      8331      8334      8342
      8335      8334      8336      8335      8334      8342      8336      8334      8342
      8334      8336      8337      8336      8337      8338      8336      8337      8339
      8338      8337      8339      8337      8339      8340      8337      8339      8341
      8337      8339      8351      8340      8339      8341      8340      8339      8351
      8341      8339      8351      8334      8342      8343      8334      8342      8344
      8334      8342      8345      8343      8342      8344      8343      8342      8345
      8344      8342      8345      8342      8345      8346      8345      8346      8347
      8345      8346      8348      8347      8346      8348      8346      8348      8349
      8346      8348      8350      8346      8348      8392      8349      8348      8350
      8349      8348      8392      8350      8348      8392      8339      8351      8352
      8339      8351      8353      8339      8351      8354      8352      8351      8353
      8352      8351      8354      8353      8351      8354      8351      8354      8355
      8351      8354      8356      8351      8354      8357      8355      8354      8356
      8355      8354      8357      8356      8354      8357      8354      8357      8358
      8354      8357      8359      8354      8357      8360      8358      8357      8359
      8358      8357      8360      8359      8357      8360      8357      8360      8361
      8357      8360      8362      8357      8360      8363      8361      8360      8362
      8361      8360      8363      8362      8360      8363      8360      8363      8364
      8360      8363      8365      8360      8363      8366      8364      8363      8365
      8364      8363      8366      8365      8363      8366      8363      8366      8367
      8363      8366      8368      8363      8366      8369      8367      8366      8368
      8367      8366      8369      8368      8366      8369      8366      8369      8370
      8366      8369      8371      8370      8369      8371      8369      8371      8372
      8369      8371      8373      8372      8371      8373      8371      8373      8374
      8371      8373      8375      8371      8373      8376      8374      8373      8375
      8374      8373      8376      8375      8373      8376      8373      8376      8377
      8373      8376      8378      8373      8376      8379      8377      8376      8378
      8377      8376      8379      8378      8376      8379      8376      8379      8380
      8376      8379      8381      8376      8379      8382      8380      8379      8381
      8380      8379      8382      8381      8379      8382      8379      8382      8383
      8379      8382      8384      8379      8382      8385      8383      8382      8384
      8383      8382      8385      8384      8382      8385      8382      8385      8386
      8382      8385      8387      8382      8385      8388      8386      8385      8387
      8386      8385      8388      8387      8385      8388      8385      8388      8389
      8385      8388      8390      8385      8388      8391      8389      8388      8390
      8389      8388      8391      8390      8388      8391      8348      8392      8393
      8348      8392      8394      8348      8392      8395      8393      8392      8394
      8393      8392      8395      8394      8392      8395      8392      8395      8396
      8392      8395      8397      8392      8395      8398      8396      8395      8397
      8396      8395      8398      8397      8395      8398      8395      8398      8399
      8395      8398      8400      8395      8398      8401      8399      8398      8400
      8399      8398      8401      8400      8398      8401      8398      8401      8402
      8398      8401      8403      8398      8401      8404      8402      8401      8403
      8402      8401      8404      8403      8401      8404      8401      8404      8405
      8401      8404      8406      8401      8404      8407      8405      8404      8406
      8405      8404      8407      8406      8404      8407      8404      8407      8408
      8404      8407      8409      8404      8407      8410      8408      8407      8409
      8408      8407      8410      8409      8407      8410      8407      8410      8411
      8407      8410      8412      8407      8410      8413      8411      8410      8412
      8411      8410      8413      8412      8410      8413      8410      8413      8414
      8410      8413      8415      8410      8413      8416      8414      8413      8415
      8414      8413      8416      8415      8413      8416      8413      8416      8417
      8413      8416      8418      8413      8416      8419      8417      8416      8418
      8417      8416      8419      8418      8416      8419      8416      8419      8420
      8416      8419      8421      8416      8419      8422      8420      8419      8421
      8420      8419      8422      8421      8419      8422      8419      8422      8423
      8419      8422      8424      8419      8422      8425      8423      8422      8424
      8423      8422      8425      8424      8422      8425      8422      8425      8426
      8422      8425      8427      8422      8425      8428      8426      8425      8427
      8426      8425      8428      8427      8425      8428      8425      8428      8429
      8425      8428      8430      8425      8428      8431      8429      8428      8430
      8429      8428      8431      8430      8428      8431      8428      8431      8432
      8428      8431      8433      8428      8431      8434      8432      8431      8433
      8432      8431      8434      8433      8431      8434      8436      8435      8437
      8436      8435      8438      8436      8435      8439      8437      8435      8438
      8437      8435      8439      8438      8435      8439      8435      8439      8440
      8435      8439      8441      8435      8439      8442      8440      8439      8441
      8440      8439      8442      8441      8439      8442      8439      8442      8443
      8439      8442      8444      8439      8442      8449      8443      8442      8444
      8443      8442      8449      8444      8442      8449      8446      8445      8447
      8446      8445      8448      8446      8445      8449      8447      8445      8448
      8447      8445      8449      8448      8445      8449      8445      8448      8450
      8442      8449      8445      8448      8450      8451      8448      8450      8452
      8448      8450      8453      8451      8450      8452      8451      8450      8453
      8452      8450      8453      8450      8453      8454      8450      8453      8455
      8450      8453      8461      8454      8453      8455      8454      8453      8461
      8455      8453      8461      8453      8455      8456      8455      8456      8457
      8455      8456      8458      8457      8456      8458      8456      8458      8459
      8456      8458      8460      8456      8458      8470      8459      8458      8460
      8459      8458      8470      8460      8458      8470      8453      8461      8462
      8453      8461      8463      8453      8461      8464      8462      8461      8463
      8462      8461      8464      8463      8461      8464      8461      8464      8465
      8464      8465      8466      8464      8465      8467      8466      8465      8467
      8465      8467      8468      8465      8467      8469      8465      8467      8514
      8468      8467      8469      8468      8467      8514      8469      8467      8514
      8458      8470      8471      8458      8470      8472      8458      8470      8473
      8471      8470      8472      8471      8470      8473      8472      8470      8473
      8470      8473      8474      8470      8473      8475      8470      8473      8476
      8474      8473      8475      8474      8473      8476      8475      8473      8476
      8473      8476      8477      8473      8476      8478      8473      8476      8479
      8477      8476      8478      8477      8476      8479      8478      8476      8479
      8476      8479      8480      8476      8479      8481      8476      8479      8482
      8480      8479      8481      8480      8479      8482      8481      8479      8482
      8479      8482      8483      8479      8482      8484      8479      8482      8485
      8483      8482      8484      8483      8482      8485      8484      8482      8485
      8482      8485      8486      8482      8485      8487      8482      8485      8488
      8486      8485      8487      8486      8485      8488      8487      8485      8488
      8485      8488      8489      8485      8488      8490      8485      8488      8493
      8489      8488      8490      8489      8488      8493      8490      8488      8493
      8488      8490      8491      8488      8490      8492      8488      8490      8493
      8491      8490      8492      8491      8490      8493      8492      8490      8493
      8488      8493      8490      8488      8493      8494      8488      8493      8495
      8490      8493      8494      8490      8493      8495      8494      8493      8495
      8493      8495      8496      8493      8495      8497      8493      8495      8498
      8496      8495      8497      8496      8495      8498      8497      8495      8498
      8495      8498      8499      8495      8498      8500      8495      8498      8501
      8499      8498      8500      8499      8498      8501      8500      8498      8501
      8498      8501      8502      8498      8501      8503      8498      8501      8504
      8502      8501      8503      8502      8501      8504      8503      8501      8504
      8501      8504      8505      8501      8504      8506      8501      8504      8507
      8505      8504      8506      8505      8504      8507      8506      8504      8507
      8504      8507      8508      8504      8507      8509      8504      8507      8510
      8508      8507      8509      8508      8507      8510      8509      8507      8510
      8507      8510      8511      8507      8510      8512      8507      8510      8513
      8511      8510      8512      8511      8510      8513      8512      8510      8513
      8467      8514      8515      8467      8514      8516      8467      8514      8517
      8515      8514      8516      8515      8514      8517      8516      8514      8517
      8514      8517      8518      8514      8517      8519      8514      8517      8520
      8518      8517      8519      8518      8517      8520      8519      8517      8520
      8517      8520      8521      8517      8520      8522      8517      8520      8523
      8521      8520      8522      8521      8520      8523      8522      8520      8523
      8520      8523      8524      8520      8523      8525      8520      8523      8526
      8524      8523      8525      8524      8523      8526      8525      8523      8526
      8523      8526      8527      8523      8526      8528      8523      8526      8529
      8527      8526      8528      8527      8526      8529      8528      8526      8529
      8526      8529      8530      8526      8529      8531      8526      8529      8532
      8530      8529      8531      8530      8529      8532      8531      8529      8532
      8529      8532      8533      8529      8532      8534      8529      8532      8535
      8533      8532      8534      8533      8532      8535      8534      8532      8535
      8532      8535      8536      8532      8535      8537      8532      8535      8538
      8536      8535      8537      8536      8535      8538      8537      8535      8538
      8535      8538      8539      8535      8538      8540      8535      8538      8541
      8539      8538      8540      8539      8538      8541      8540      8538      8541
      8538      8541      8542      8538      8541      8543      8538      8541      8544
      8542      8541      8543      8542      8541      8544      8543      8541      8544
      8541      8544      8545      8541      8544      8546      8541      8544      8547
      8545      8544      8546      8545      8544      8547      8546      8544      8547
      8544      8547      8548      8544      8547      8549      8544      8547      8550
      8548      8547      8549      8548      8547      8550      8549      8547      8550
      8547      8550      8551      8547      8550      8552      8547      8550      8553
      8551      8550      8552      8551      8550      8553      8552      8550      8553
      8550      8553      8554      8550      8553      8555      8550      8553      8556
      8554      8553      8555      8554      8553      8556      8555      8553      8556
      8558      8557      8559      8558      8557      8560      8558      8557      8561
      8559      8557      8560      8559      8557      8561      8560      8557      8561
      8557      8561      8562      8557      8561      8563      8557      8561      8564
      8562      8561      8563      8562      8561      8564      8563      8561      8564
      8561      8564      8565      8561      8564      8566      8561      8564      8571
      8565      8564      8566      8565      8564      8571      8566      8564      8571
      8568      8567      8569      8568      8567      8570      8568      8567      8571
      8569      8567      8570      8569      8567      8571      8570      8567      8571
      8567      8570      8572      8564      8571      8567      8570      8572      8573
      8570      8572      8574      8570      8572      8575      8573      8572      8574
      8573      8572      8575      8574      8572      8575      8572      8575      8576
      8572      8575      8577      8572      8575      8583      8576      8575      8577
      8576      8575      8583      8577      8575      8583      8575      8577      8578
      8577      8578      8579      8577      8578      8580      8579      8578      8580
      8578      8580      8581      8578      8580      8582      8578      8580      8592
      8581      8580      8582      8581      8580      8592      8582      8580      8592
      8575      8583      8584      8575      8583      8585      8575      8583      8586
      8584      8583      8585      8584      8583      8586      8585      8583      8586
      8583      8586      8587      8586      8587      8588      8586      8587      8589
      8588      8587      8589      8587      8589      8590      8587      8589      8591
      8587      8589      8636      8590      8589      8591      8590      8589      8636
      8591      8589      8636      8580      8592      8593      8580      8592      8594
      8580      8592      8595      8593      8592      8594      8593      8592      8595
      8594      8592      8595      8592      8595      8596      8592      8595      8597
      8592      8595      8598      8596      8595      8597      8596      8595      8598
      8597      8595      8598      8595      8598      8599      8595      8598      8600
      8595      8598      8601      8599      8598      8600      8599      8598      8601
      8600      8598      8601      8598      8601      8602      8598      8601      8603
      8598      8601      8604      8602      8601      8603      8602      8601      8604
      8603      8601      8604      8601      8604      8605      8601      8604      8606
      8601      8604      8607      8605      8604      8606      8605      8604      8607
      8606      8604      8607      8604      8607      8608      8604      8607      8609
      8604      8607      8610      8608      8607      8609      8608      8607      8610
      8609      8607      8610      8607      8610      8611      8607      8610      8612
      8607      8610      8615      8611      8610      8612      8611      8610      8615
      8612      8610      8615      8610      8612      8613      8610      8612      8614
      8610      8612      8615      8613      8612      8614      8613      8612      8615
      8614      8612      8615      8610      8615      8612      8610      8615      8616
      8610      8615      8617      8612      8615      8616      8612      8615      8617
      8616      8615      8617      8615      8617      8618      8615      8617      8619
      8615      8617      8620      8618      8617      8619      8618      8617      8620
      8619      8617      8620      8617      8620      8621      8617      8620      8622
      8617      8620      8623      8621      8620      8622      8621      8620      8623
      8622      8620      8623      8620      8623      8624      8620      8623      8625
      8620      8623      8626      8624      8623      8625      8624      8623      8626
      8625      8623      8626      8623      8626      8627      8623      8626      8628
      8623      8626      8629      8627      8626      8628      8627      8626      8629
      8628      8626      8629      8626      8629      8630      8626      8629      8631
      8626      8629      8632      8630      8629      8631      8630      8629      8632
      8631      8629      8632      8629      8632      8633      8629      8632      8634
      8629      8632      8635      8633      8632      8634      8633      8632      8635
      8634      8632      8635      8589      8636      8637      8589      8636      8638
      8589      8636      8639      8637      8636      8638      8637      8636      8639
      8638      8636      8639      8636      8639      8640      8636      8639      8641
      8636      8639      8642      8640      8639      8641      8640      8639      8642
      8641      8639      8642      8639      8642      8643      8639      8642      8644
      8639      8642      8645      8643      8642      8644      8643      8642      8645
      8644      8642      8645      8642      8645      8646      8642      8645      8647
      8642      8645      8648      8646      8645      8647      8646      8645      8648
      8647      8645      8648      8645      8648      8649      8645      8648      8650
      8645      8648      8651      8649      8648      8650      8649      8648      8651
      8650      8648      8651      8648      8651      8652      8648      8651      8653
      8648      8651      8654      8652      8651      8653      8652      8651      8654
      8653      8651      8654      8651      8654      8655      8651      8654      8656
      8651      8654      8657      8655      8654      8656      8655      8654      8657
      8656      8654      8657      8654      8657      8658      8654      8657      8659
      8654      8657      8660      8658      8657      8659      8658      8657      8660
      8659      8657      8660      8657      8660      8661      8657      8660      8662
      8657      8660      8663      8661      8660      8662      8661      8660      8663
      8662      8660      8663      8660      8663      8664      8660      8663      8665
      8660      8663      8666      8664      8663      8665      8664      8663      8666
      8665      8663      8666      8663      8666      8667      8663      8666      8668
      8663      8666      8669      8667      8666      8668      8667      8666      8669
      8668      8666      8669      8666      8669      8670      8666      8669      8671
      8666      8669      8672      8670      8669      8671      8670      8669      8672
      8671      8669      8672      8669      8672      8673      8669      8672      8674
      8669      8672      8675      8673      8672      8674      8673      8672      8675
      8674      8672      8675      8672      8675      8676      8672      8675      8677
      8672      8675      8678      8676      8675      8677      8676      8675      8678
      8677      8675      8678      8680      8679      8681      8680      8679      8682
      8680      8679      8683      8681      8679      8682      8681      8679      8683
      8682      8679      8683      8679      8683      8684      8679      8683      8685
      8679      8683      8686      8684      8683      8685      8684      8683      8686
      8685      8683      8686      8683      8686      8687      8683      8686      8688
      8683      8686      8693      8687      8686      8688      8687      8686      8693
      8688      8686      8693      8690      8689      8691      8690      8689      8692
      8690      8689      8693      8691      8689      8692      8691      8689      8693
      8692      8689      8693      8689      8692      8694      8686      8693      8689
      8692      8694      8695      8692      8694      8696      8692      8694      8697
      8695      8694      8696      8695      8694      8697      8696      8694      8697
      8694      8697      8698      8694      8697      8699      8694      8697      8705
      8698      8697      8699      8698      8697      8705      8699      8697      8705
      8697      8699      8700      8699      8700      8701      8699      8700      8702
      8701      8700      8702      8700      8702      8703      8700      8702      8704
      8700      8702      8714      8703      8702      8704      8703      8702      8714
      8704      8702      8714      8697      8705      8706      8697      8705      8707
      8697      8705      8708      8706      8705      8707      8706      8705      8708
      8707      8705      8708      8705      8708      8709      8708      8709      8710
      8708      8709      8711      8710      8709      8711      8709      8711      8712
      8709      8711      8713      8709      8711      8758      8712      8711      8713
      8712      8711      8758      8713      8711      8758      8702      8714      8715
      8702      8714      8716      8702      8714      8717      8715      8714      8716
      8715      8714      8717      8716      8714      8717      8714      8717      8718
      8714      8717      8719      8714      8717      8720      8718      8717      8719
      8718      8717      8720      8719      8717      8720      8717      8720      8721
      8717      8720      8722      8717      8720      8723      8721      8720      8722
      8721      8720      8723      8722      8720      8723      8720      8723      8724
      8720      8723      8725      8720      8723      8726      8724      8723      8725
      8724      8723      8726      8725      8723      8726      8723      8726      8727
      8723      8726      8728      8723      8726      8729      8727      8726      8728
      8727      8726      8729      8728      8726      8729      8726      8729      8730
      8726      8729      8731      8726      8729      8732      8730      8729      8731
      8730      8729      8732      8731      8729      8732      8729      8732      8733
      8729      8732      8734      8729      8732      8737      8733      8732      8734
      8733      8732      8737      8734      8732      8737      8732      8734      8735
      8732      8734      8736      8732      8734      8737      8735      8734      8736
      8735      8734      8737      8736      8734      8737      8732      8737      8734
      8732      8737      8738      8732      8737      8739      8734      8737      8738
      8734      8737      8739      8738      8737      8739      8737      8739      8740
      8737      8739      8741      8737      8739      8742      8740      8739      8741
      8740      8739      8742      8741      8739      8742      8739      8742      8743
      8739      8742      8744      8739      8742      8745      8743      8742      8744
      8743      8742      8745      8744      8742      8745      8742      8745      8746
      8742      8745      8747      8742      8745      8748      8746      8745      8747
      8746      8745      8748      8747      8745      8748      8745      8748      8749
      8745      8748      8750      8745      8748      8751      8749      8748      8750
      8749      8748      8751      8750      8748      8751      8748      8751      8752
      8748      8751      8753      8748      8751      8754      8752      8751      8753
      8752      8751      8754      8753      8751      8754      8751      8754      8755
      8751      8754      8756      8751      8754      8757      8755      8754      8756
      8755      8754      8757      8756      8754      8757      8711      8758      8759
      8711      8758      8760      8711      8758      8761      8759      8758      8760
      8759      8758      8761      8760      8758      8761      8758      8761      8762
      8758      8761      8763      8758      8761      8764      8762      8761      8763
      8762      8761      8764      8763      8761      8764      8761      8764      8765
      8761      8764      8766      8761      8764      8767      8765      8764      8766
      8765      8764      8767      8766      8764      8767      8764      8767      8768
      8764      8767      8769      8764      8767      8770      8768      8767      8769
      8768      8767      8770      8769      8767      8770      8767      8770      8771
      8767      8770      8772      8767      8770      8773      8771      8770      8772
      8771      8770      8773      8772      8770      8773      8770      8773      8774
      8770      8773      8775      8770      8773      8776      8774      8773      8775
      8774      8773      8776      8775      8773      8776      8773      8776      8777
      8773      8776      8778      8773      8776      8779      8777      8776      8778
      8777      8776      8779      8778      8776      8779      8776      8779      8780
      8776      8779      8781      8776      8779      8782      8780      8779      8781
      8780      8779      8782      8781      8779      8782      8779      8782      8783
      8779      8782      8784      8779      8782      8785      8783      8782      8784
      8783      8782      8785      8784      8782      8785      8782      8785      8786
      8782      8785      8787      8782      8785      8788      8786      8785      8787
      8786      8785      8788      8787      8785      8788      8785      8788      8789
      8785      8788      8790      8785      8788      8791      8789      8788      8790
      8789      8788      8791      8790      8788      8791      8788      8791      8792
      8788      8791      8793      8788      8791      8794      8792      8791      8793
      8792      8791      8794      8793      8791      8794      8791      8794      8795
      8791      8794      8796      8791      8794      8797      8795      8794      8796
      8795      8794      8797      8796      8794      8797      8794      8797      8798
      8794      8797      8799      8794      8797      8800      8798      8797      8799
      8798      8797      8800      8799      8797      8800      8802      8801      8803
      8802      8801      8804      8802      8801      8805      8803      8801      8804
      8803      8801      8805      8804      8801      8805      8801      8805      8806
      8801      8805      8807      8801      8805      8808      8806      8805      8807
      8806      8805      8808      8807      8805      8808      8805      8808      8809
      8805      8808      8810      8805      8808      8815      8809      8808      8810
      8809      8808      8815      8810      8808      8815      8812      8811      8813
      8812      8811      8814      8812      8811      8815      8813      8811      8814
      8813      8811      8815      8814      8811      8815      8811      8814      8816
      8808      8815      8811      8814      8816      8817      8814      8816      8818
      8814      8816      8819      8817      8816      8818      8817      8816      8819
      8818      8816      8819      8816      8819      8820      8816      8819      8821
      8816      8819      8827      8820      8819      8821      8820      8819      8827
      8821      8819      8827      8819      8821      8822      8821      8822      8823
      8821      8822      8824      8823      8822      8824      8822      8824      8825
      8822      8824      8826      8822      8824      8836      8825      8824      8826
      8825      8824      8836      8826      8824      8836      8819      8827      8828
      8819      8827      8829      8819      8827      8830      8828      8827      8829
      8828      8827      8830      8829      8827      8830      8827      8830      8831
      8830      8831      8832      8830      8831      8833      8832      8831      8833
      8831      8833      8834      8831      8833      8835      8831      8833      8880
      8834      8833      8835      8834      8833      8880      8835      8833      8880
      8824      8836      8837      8824      8836      8838      8824      8836      8839
      8837      8836      8838      8837      8836      8839      8838      8836      8839
      8836      8839      8840      8836      8839      8841      8836      8839      8842
      8840      8839      8841      8840      8839      8842      8841      8839      8842
      8839      8842      8843      8839      8842      8844      8839      8842      8845
      8843      8842      8844      8843      8842      8845      8844      8842      8845
      8842      8845      8846      8842      8845      8847      8842      8845      8848
      8846      8845      8847      8846      8845      8848      8847      8845      8848
      8845      8848      8849      8845      8848      8850      8845      8848      8851
      8849      8848      8850      8849      8848      8851      8850      8848      8851
      8848      8851      8852      8848      8851      8853      8848      8851      8854
      8852      8851      8853      8852      8851      8854      8853      8851      8854
      8851      8854      8855      8851      8854      8856      8851      8854      8859
      8855      8854      8856      8855      8854      8859      8856      8854      8859
      8854      8856      8857      8854      8856      8858      8854      8856      8859
      8857      8856      8858      8857      8856      8859      8858      8856      8859
      8854      8859      8856      8854      8859      8860      8854      8859      8861
      8856      8859      8860      8856      8859      8861      8860      8859      8861
      8859      8861      8862      8859      8861      8863      8859      8861      8864
      8862      8861      8863      8862      8861      8864      8863      8861      8864
      8861      8864      8865      8861      8864      8866      8861      8864      8867
      8865      8864      8866      8865      8864      8867      8866      8864      8867
      8864      8867      8868      8864      8867      8869      8864      8867      8870
      8868      8867      8869      8868      8867      8870      8869      8867      8870
      8867      8870      8871      8867      8870      8872      8867      8870      8873
      8871      8870      8872      8871      8870      8873      8872      8870      8873
      8870      8873      8874      8870      8873      8875      8870      8873      8876
      8874      8873      8875      8874      8873      8876      8875      8873      8876
      8873      8876      8877      8873      8876      8878      8873      8876      8879
      8877      8876      8878      8877      8876      8879      8878      8876      8879
      8833      8880      8881      8833      8880      8882      8833      8880      8883
      8881      8880      8882      8881      8880      8883      8882      8880      8883
      8880      8883      8884      8880      8883      8885      8880      8883      8886
      8884      8883      8885      8884      8883      8886      8885      8883      8886
      8883      8886      8887      8883      8886      8888      8883      8886      8889
      8887      8886      8888      8887      8886      8889      8888      8886      8889
      8886      8889      8890      8886      8889      8891      8886      8889      8892
      8890      8889      8891      8890      8889      8892      8891      8889      8892
      8889      8892      8893      8889      8892      8894      8889      8892      8895
      8893      8892      8894      8893      8892      8895      8894      8892      8895
      8892      8895      8896      8892      8895      8897      8892      8895      8898
      8896      8895      8897      8896      8895      8898      8897      8895      8898
      8895      8898      8899      8895      8898      8900      8895      8898      8901
      8899      8898      8900      8899      8898      8901      8900      8898      8901
      8898      8901      8902      8898      8901      8903      8898      8901      8904
      8902      8901      8903      8902      8901      8904      8903      8901      8904
      8901      8904      8905      8901      8904      8906      8901      8904      8907
      8905      8904      8906      8905      8904      8907      8906      8904      8907
      8904      8907      8908      8904      8907      8909      8904      8907      8910
      8908      8907      8909      8908      8907      8910      8909      8907      8910
      8907      8910      8911      8907      8910      8912      8907      8910      8913
      8911      8910      8912      8911      8910      8913      8912      8910      8913
      8910      8913      8914      8910      8913      8915      8910      8913      8916
      8914      8913      8915      8914      8913      8916      8915      8913      8916
      8913      8916      8917      8913      8916      8918      8913      8916      8919
      8917      8916      8918      8917      8916      8919      8918      8916      8919
      8916      8919      8920      8916      8919      8921      8916      8919      8922
      8920      8919      8921      8920      8919      8922      8921      8919      8922
      8924      8923      8925      8924      8923      8926      8924      8923      8927
      8925      8923      8926      8925      8923      8927      8926      8923      8927
      8923      8927      8928      8923      8927      8929      8923      8927      8930
      8928      8927      8929      8928      8927      8930      8929      8927      8930
      8927      8930      8931      8927      8930      8932      8927      8930      8937
      8931      8930      8932      8931      8930      8937      8932      8930      8937
      8934      8933      8935      8934      8933      8936      8934      8933      8937
      8935      8933      8936      8935      8933      8937      8936      8933      8937
      8933      8936      8938      8930      8937      8933      8936      8938      8939
      8936      8938      8940      8936      8938      8941      8939      8938      8940
      8939      8938      8941      8940      8938      8941      8938      8941      8942
      8938      8941      8943      8938      8941      8949      8942      8941      8943
      8942      8941      8949      8943      8941      8949      8941      8943      8944
      8943      8944      8945      8943      8944      8946      8945      8944      8946
      8944      8946      8947      8944      8946      8948      8944      8946      8958
      8947      8946      8948      8947      8946      8958      8948      8946      8958
      8941      8949      8950      8941      8949      8951      8941      8949      8952
      8950      8949      8951      8950      8949      8952      8951      8949      8952
      8949      8952      8953      8952      8953      8954      8952      8953      8955
      8954      8953      8955      8953      8955      8956      8953      8955      8957
      8953      8955      9002      8956      8955      8957      8956      8955      9002
      8957      8955      9002      8946      8958      8959      8946      8958      8960
      8946      8958      8961      8959      8958      8960      8959      8958      8961
      8960      8958      8961      8958      8961      8962      8958      8961      8963
      8958      8961      8964      8962      8961      8963      8962      8961      8964
      8963      8961      8964      8961      8964      8965      8961      8964      8966
      8961      8964      8967      8965      8964      8966      8965      8964      8967
      8966      8964      8967      8964      8967      8968      8964      8967      8969
      8964      8967      8970      8968      8967      8969      8968      8967      8970
      8969      8967      8970      8967      8970      8971      8967      8970      8972
      8967      8970      8973      8971      8970      8972      8971      8970      8973
      8972      8970      8973      8970      8973      8974      8970      8973      8975
      8970      8973      8976      8974      8973      8975      8974      8973      8976
      8975      8973      8976      8973      8976      8977      8973      8976      8978
      8973      8976      8981      8977      8976      8978      8977      8976      8981
      8978      8976      8981      8976      8978      8979      8976      8978      8980
      8976      8978      8981      8979      8978      8980      8979      8978      8981
      8980      8978      8981      8976      8981      8978      8976      8981      8982
      8976      8981      8983      8978      8981      8982      8978      8981      8983
      8982      8981      8983      8981      8983      8984      8981      8983      8985
      8981      8983      8986      8984      8983      8985      8984      8983      8986
      8985      8983      8986      8983      8986      8987      8983      8986      8988
      8983      8986      8989      8987      8986      8988      8987      8986      8989
      8988      8986      8989      8986      8989      8990      8986      8989      8991
      8986      8989      8992      8990      8989      8991      8990      8989      8992
      8991      8989      8992      8989      8992      8993      8989      8992      8994
      8989      8992      8995      8993      8992      8994      8993      8992      8995
      8994      8992      8995      8992      8995      8996      8992      8995      8997
      8992      8995      8998      8996      8995      8997      8996      8995      8998
      8997      8995      8998      8995      8998      8999      8995      8998      9000
      8995      8998      9001      8999      8998      9000      8999      8998      9001
      9000      8998      9001      8955      9002      9003      8955      9002      9004
      8955      9002      9005      9003      9002      9004      9003      9002      9005
      9004      9002      9005      9002      9005      9006      9002      9005      9007
      9002      9005      9008      9006      9005      9007      9006      9005      9008
      9007      9005      9008      9005      9008      9009      9005      9008      9010
      9005      9008      9011      9009      9008      9010      9009      9008      9011
      9010      9008      9011      9008      9011      9012      9008      9011      9013
      9008      9011      9014      9012      9011      9013      9012      9011      9014
      9013      9011      9014      9011      9014      9015      9011      9014      9016
      9011      9014      9017      9015      9014      9016      9015      9014      9017
      9016      9014      9017      9014      9017      9018      9014      9017      9019
      9014      9017      9020      9018      9017      9019      9018      9017      9020
      9019      9017      9020      9017      9020      9021      9017      9020      9022
      9017      9020      9023      9021      9020      9022      9021      9020      9023
      9022      9020      9023      9020      9023      9024      9020      9023      9025
      9020      9023      9026      9024      9023      9025      9024      9023      9026
      9025      9023      9026      9023      9026      9027      9023      9026      9028
      9023      9026      9029      9027      9026      9028      9027      9026      9029
      9028      9026      9029      9026      9029      9030      9026      9029      9031
      9026      9029      9032      9030      9029      9031      9030      9029      9032
      9031      9029      9032      9029      9032      9033      9029      9032      9034
      9029      9032      9035      9033      9032      9034      9033      9032      9035
      9034      9032      9035      9032      9035      9036      9032      9035      9037
      9032      9035      9038      9036      9035      9037      9036      9035      9038
      9037      9035      9038      9035      9038      9039      9035      9038      9040
      9035      9038      9041      9039      9038      9040      9039      9038      9041
      9040      9038      9041      9038      9041      9042      9038      9041      9043
      9038      9041      9044      9042      9041      9043      9042      9041      9044
      9043      9041      9044      9046      9045      9047      9046      9045      9048
      9046      9045      9050      9047      9045      9048      9047      9045      9050
      9048      9045      9050      9045      9048      9049      9045      9050      9051
      9045      9050      9052      9045      9050      9054      9051      9050      9052
      9051      9050      9054      9052      9050      9054      9050      9052      9053
      9050      9054      9055      9050      9054      9056      9050      9054      9061
      9055      9054      9056      9055      9054      9061      9056      9054      9061
      9058      9057      9059      9058      9057      9060      9058      9057      9061
      9059      9057      9060      9059      9057      9061      9060      9057      9061
      9057      9060      9062      9054      9061      9057      9060      9062      9063
      9060      9062      9064      9060      9062      9065      9063      9062      9064
      9063      9062      9065      9064      9062      9065      9062      9065      9066
      9062      9065      9067      9062      9065      9073      9066      9065      9067
      9066      9065      9073      9067      9065      9073      9065      9067      9068
      9067      9068      9069      9067      9068      9070      9069      9068      9070
      9068      9070      9071      9068      9070      9072      9068      9070      9082
      9071      9070      9072      9071      9070      9082      9072      9070      9082
      9065      9073      9074      9065      9073      9075      9065      9073      9076
      9074      9073      9075      9074      9073      9076      9075      9073      9076
      9073      9076      9077      9076      9077      9078      9076      9077      9079
      9078      9077      9079      9077      9079      9080      9077      9079      9081
      9077      9079      9123      9080      9079      9081      9080      9079      9123
      9081      9079      9123      9070      9082      9083      9070      9082      9084
      9070      9082      9085      9083      9082      9084      9083      9082      9085
      9084      9082      9085      9082      9085      9086      9082      9085      9087
      9082      9085      9088      9086      9085      9087      9086      9085      9088
      9087      9085      9088      9085      9088      9089      9085      9088      9090
      9085      9088      9091      9089      9088      9090      9089      9088      9091
      9090      9088      9091      9088      9091      9092      9088      9091      9093
      9088      9091      9094      9092      9091      9093      9092      9091      9094
      9093      9091      9094      9091      9094      9095      9091      9094      9096
      9091      9094      9097      9095      9094      9096      9095      9094      9097
      9096      9094      9097      9094      9097      9098      9094      9097      9099
      9094      9097      9100      9098      9097      9099      9098      9097      9100
      9099      9097      9100      9097      9100      9101      9097      9100      9102
      9101      9100      9102      9100      9102      9103      9100      9102      9104
      9103      9102      9104      9102      9104      9105      9102      9104      9106
      9102      9104      9107      9105      9104      9106      9105      9104      9107
      9106      9104      9107      9104      9107      9108      9104      9107      9109
      9104      9107      9110      9108      9107      9109      9108      9107      9110
      9109      9107      9110      9107      9110      9111      9107      9110      9112
      9107      9110      9113      9111      9110      9112      9111      9110      9113
      9112      9110      9113      9110      9113      9114      9110      9113      9115
      9110      9113      9116      9114      9113      9115      9114      9113      9116
      9115      9113      9116      9113      9116      9117      9113      9116      9118
      9113      9116      9119      9117      9116      9118      9117      9116      9119
      9118      9116      9119      9116      9119      9120      9116      9119      9121
      9116      9119      9122      9120      9119      9121      9120      9119      9122
      9121      9119      9122      9079      9123      9124      9079      9123      9125
      9079      9123      9126      9124      9123      9125      9124      9123      9126
      9125      9123      9126      9123      9126      9127      9123      9126      9128
      9123      9126      9129      9127      9126      9128      9127      9126      9129
      9128      9126      9129      9126      9129      9130      9126      9129      9131
      9126      9129      9132      9130      9129      9131      9130      9129      9132
      9131      9129      9132      9129      9132      9133      9129      9132      9134
      9129      9132      9135      9133      9132      9134      9133      9132      9135
      9134      9132      9135      9132      9135      9136      9132      9135      9137
      9132      9135      9138      9136      9135      9137      9136      9135      9138
      9137      9135      9138      9135      9138      9139      9135      9138      9140
      9135      9138      9141      9139      9138      9140      9139      9138      9141
      9140      9138      9141      9138      9141      9142      9138      9141      9143
      9138      9141      9144      9142      9141      9143      9142      9141      9144
      9143      9141      9144      9141      9144      9145      9141      9144      9146
      9141      9144      9147      9145      9144      9146      9145      9144      9147
      9146      9144      9147      9144      9147      9148      9144      9147      9149
      9144      9147      9150      9148      9147      9149      9148      9147      9150
      9149      9147      9150      9147      9150      9151      9147      9150      9152
      9147      9150      9153      9151      9150      9152      9151      9150      9153
      9152      9150      9153      9150      9153      9154      9150      9153      9155
      9150      9153      9156      9154      9153      9155      9154      9153      9156
      9155      9153      9156      9153      9156      9157      9153      9156      9158
      9153      9156      9159      9157      9156      9158      9157      9156      9159
      9158      9156      9159      9156      9159      9160      9156      9159      9161
      9156      9159      9162      9160      9159      9161      9160      9159      9162
      9161      9159      9162      9159      9162      9163      9159      9162      9164
      9159      9162      9165      9163      9162      9164      9163      9162      9165
      9164      9162      9165      9167      9166      9168      9167      9166      9169
      9167      9166      9170      9168      9166      9169      9168      9166      9170
      9169      9166      9170      9166      9170      9171      9166      9170      9172
      9166      9170      9173      9171      9170      9172      9171      9170      9173
      9172      9170      9173      9170      9173      9174      9170      9173      9175
      9170      9173      9180      9174      9173      9175      9174      9173      9180
      9175      9173      9180      9177      9176      9178      9177      9176      9179
      9177      9176      9180      9178      9176      9179      9178      9176      9180
      9179      9176      9180      9176      9179      9181      9173      9180      9176
      9179      9181      9182      9179      9181      9183      9179      9181      9184
      9182      9181      9183      9182      9181      9184      9183      9181      9184
      9181      9184      9185      9181      9184      9186      9181      9184      9192
      9185      9184      9186      9185      9184      9192      9186      9184      9192
      9184      9186      9187      9186      9187      9188      9186      9187      9189
      9188      9187      9189      9187      9189      9190      9187      9189      9191
      9187      9189      9201      9190      9189      9191      9190      9189      9201
      9191      9189      9201      9184      9192      9193      9184      9192      9194
      9184      9192      9195      9193      9192      9194      9193      9192      9195
      9194      9192      9195      9192      9195      9196      9195      9196      9197
      9195      9196      9198      9197      9196      9198      9196      9198      9199
      9196      9198      9200      9196      9198      9248      9199      9198      9200
      9199      9198      9248      9200      9198      9248      9189      9201      9202
      9189      9201      9203      9189      9201      9204      9202      9201      9203
      9202      9201      9204      9203      9201      9204      9201      9204      9205
      9201      9204      9206      9201      9204      9207      9205      9204      9206
      9205      9204      9207      9206      9204      9207      9204      9207      9208
      9204      9207      9209      9204      9207      9210      9208      9207      9209
      9208      9207      9210      9209      9207      9210      9207      9210      9211
      9207      9210      9212      9207      9210      9213      9211      9210      9212
      9211      9210      9213      9212      9210      9213      9210      9213      9214
      9210      9213      9215      9210      9213      9216      9214      9213      9215
      9214      9213      9216      9215      9213      9216      9213      9216      9217
      9213      9216      9218      9213      9216      9219      9217      9216      9218
      9217      9216      9219      9218      9216      9219      9216      9219      9220
      9216      9219      9221      9220      9219      9221      9219      9221      9222
      9219      9221      9223      9222      9221      9223      9221      9223      9224
      9221      9223      9225      9221      9223      9226      9224      9223      9225
      9224      9223      9226      9225      9223      9226      9223      9226      9227
      9223      9226      9228      9223      9226      9229      9227      9226      9228
      9227      9226      9229      9228      9226      9229      9226      9229      9230
      9226      9229      9231      9226      9229      9232      9230      9229      9231
      9230      9229      9232      9231      9229      9232      9229      9232      9233
      9229      9232      9234      9229      9232      9235      9233      9232      9234
      9233      9232      9235      9234      9232      9235      9232      9235      9236
      9232      9235      9237      9232      9235      9238      9236      9235      9237
      9236      9235      9238      9237      9235      9238      9235      9238      9239
      9235      9238      9240      9235      9238      9241      9239      9238      9240
      9239      9238      9241      9240      9238      9241      9238      9241      9242
      9238      9241      9243      9238      9241      9244      9242      9241      9243
      9242      9241      9244      9243      9241      9244      9241      9244      9245
      9241      9244      9246      9241      9244      9247      9245      9244      9246
      9245      9244      9247      9246      9244      9247      9198      9248      9249
      9198      9248      9250      9198      9248      9251      9249      9248      9250
      9249      9248      9251      9250      9248      9251      9248      9251      9252
      9248      9251      9253      9248      9251      9254      9252      9251      9253
      9252      9251      9254      9253      9251      9254      9251      9254      9255
      9251      9254      9256      9251      9254      9257      9255      9254      9256
      9255      9254      9257      9256      9254      9257      9254      9257      9258
      9254      9257      9259      9254      9257      9260      9258      9257      9259
      9258      9257      9260      9259      9257      9260      9257      9260      9261
      9257      9260      9262      9257      9260      9263      9261      9260      9262
      9261      9260      9263      9262      9260      9263      9260      9263      9264
      9260      9263      9265      9260      9263      9266      9264      9263      9265
      9264      9263      9266      9265      9263      9266      9263      9266      9267
      9263      9266      9268      9263      9266      9269      9267      9266      9268
      9267      9266      9269      9268      9266      9269      9266      9269      9270
      9266      9269      9271      9266      9269      9272      9270      9269      9271
      9270      9269      9272      9271      9269      9272      9269      9272      9273
      9269      9272      9274      9269      9272      9275      9273      9272      9274
      9273      9272      9275      9274      9272      9275      9272      9275      9276
      9272      9275      9277      9272      9275      9278      9276      9275      9277
      9276      9275      9278      9277      9275      9278      9275      9278      9279
      9275      9278      9280      9275      9278      9281      9279      9278      9280
      9279      9278      9281      9280      9278      9281      9278      9281      9282
      9278      9281      9283      9278      9281      9284      9282      9281      9283
      9282      9281      9284      9283      9281      9284      9281      9284      9285
      9281      9284      9286      9281      9284      9287      9285      9284      9286
      9285      9284      9287      9286      9284      9287      9284      9287      9288
      9284      9287      9289      9284      9287      9290      9288      9287      9289
      9288      9287      9290      9289      9287      9290      9292      9291      9293
      9292      9291      9294      9292      9291      9295      9293      9291      9294
      9293      9291      9295      9294      9291      9295      9291      9295      9296
      9291      9295      9297      9291      9295      9298      9296      9295      9297
      9296      9295      9298      9297      9295      9298      9295      9298      9299
      9295      9298      9300      9295      9298      9305      9299      9298      9300
      9299      9298      9305      9300      9298      9305      9302      9301      9303
      9302      9301      9304      9302      9301      9305      9303      9301      9304
      9303      9301      9305      9304      9301      9305      9301      9304      9306
      9298      9305      9301      9304      9306      9307      9304      9306      9308
      9304      9306      9309      9307      9306      9308      9307      9306      9309
      9308      9306      9309      9306      9309      9310      9306      9309      9311
      9306      9309      9317      9310      9309      9311      9310      9309      9317
      9311      9309      9317      9309      9311      9312      9311      9312      9313
      9311      9312      9314      9313      9312      9314      9312      9314      9315
      9312      9314      9316      9312      9314      9326      9315      9314      9316
      9315      9314      9326      9316      9314      9326      9309      9317      9318
      9309      9317      9319      9309      9317      9320      9318      9317      9319
      9318      9317      9320      9319      9317      9320      9317      9320      9321
      9320      9321      9322      9320      9321      9323      9322      9321      9323
      9321      9323      9324      9321      9323      9325      9321      9323      9370
      9324      9323      9325      9324      9323      9370      9325      9323      9370
      9314      9326      9327      9314      9326      9328      9314      9326      9329
      9327      9326      9328      9327      9326      9329      9328      9326      9329
      9326      9329      9330      9326      9329      9331      9326      9329      9332
      9330      9329      9331      9330      9329      9332      9331      9329      9332
      9329      9332      9333      9329      9332      9334      9329      9332      9335
      9333      9332      9334      9333      9332      9335      9334      9332      9335
      9332      9335      9336      9332      9335      9337      9332      9335      9338
      9336      9335      9337      9336      9335      9338      9337      9335      9338
      9335      9338      9339      9335      9338      9340      9335      9338      9341
      9339      9338      9340      9339      9338      9341      9340      9338      9341
      9338      9341      9342      9338      9341      9343      9338      9341      9344
      9342      9341      9343      9342      9341      9344      9343      9341      9344
      9341      9344      9345      9341      9344      9346      9341      9344      9349
      9345      9344      9346      9345      9344      9349      9346      9344      9349
      9344      9346      9347      9344      9346      9348      9344      9346      9349
      9347      9346      9348      9347      9346      9349      9348      9346      9349
      9344      9349      9346      9344      9349      9350      9344      9349      9351
      9346      9349      9350      9346      9349      9351      9350      9349      9351
      9349      9351      9352      9349      9351      9353      9349      9351      9354
      9352      9351      9353      9352      9351      9354      9353      9351      9354
      9351      9354      9355      9351      9354      9356      9351      9354      9357
      9355      9354      9356      9355      9354      9357      9356      9354      9357
      9354      9357      9358      9354      9357      9359      9354      9357      9360
      9358      9357      9359      9358      9357      9360      9359      9357      9360
      9357      9360      9361      9357      9360      9362      9357      9360      9363
      9361      9360      9362      9361      9360      9363      9362      9360      9363
      9360      9363      9364      9360      9363      9365      9360      9363      9366
      9364      9363      9365      9364      9363      9366      9365      9363      9366
      9363      9366      9367      9363      9366      9368      9363      9366      9369
      9367      9366      9368      9367      9366      9369      9368      9366      9369
      9323      9370      9371      9323      9370      9372      9323      9370      9373
      9371      9370      9372      9371      9370      9373      9372      9370      9373
      9370      9373      9374      9370      9373      9375      9370      9373      9376
      9374      9373      9375      9374      9373      9376      9375      9373      9376
      9373      9376      9377      9373      9376      9378      9373      9376      9379
      9377      9376      9378      9377      9376      9379      9378      9376      9379
      9376      9379      9380      9376      9379      9381      9376      9379      9382
      9380      9379      9381      9380      9379      9382      9381      9379      9382
      9379      9382      9383      9379      9382      9384      9379      9382      9385
      9383      9382      9384      9383      9382      9385      9384      9382      9385
      9382      9385      9386      9382      9385      9387      9382      9385      9388
      9386      9385      9387      9386      9385      9388      9387      9385      9388
      9385      9388      9389      9385      9388      9390      9385      9388      9391
      9389      9388      9390      9389      9388      9391      9390      9388      9391
      9388      9391      9392      9388      9391      9393      9388      9391      9394
      9392      9391      9393      9392      9391      9394      9393      9391      9394
      9391      9394      9395      9391      9394      9396      9391      9394      9397
      9395      9394      9396      9395      9394      9397      9396      9394      9397
      9394      9397      9398      9394      9397      9399      9394      9397      9400
      9398      9397      9399      9398      9397      9400      9399      9397      9400
      9397      9400      9401      9397      9400      9402      9397      9400      9403
      9401      9400      9402      9401      9400      9403      9402      9400      9403
      9400      9403      9404      9400      9403      9405      9400      9403      9406
      9404      9403      9405      9404      9403      9406      9405      9403      9406
      9403      9406      9407      9403      9406      9408      9403      9406      9409
      9407      9406      9408      9407      9406      9409      9408      9406      9409
      9411      9410      9412      9411      9410      9413      9411      9410      9414
      9412      9410      9413      9412      9410      9414      9413      9410      9414
      9410      9414      9415      9410      9414      9416      9410      9414      9417
      9415      9414      9416      9415      9414      9417      9416      9414      9417
      9414      9417      9418      9414      9417      9419      9414      9417      9424
      9418      9417      9419      9418      9417      9424      9419      9417      9424
      9421      9420      9422      9421      9420      9423      9421      9420      9424
      9422      9420      9423      9422      9420      9424      9423      9420      9424
      9420      9423      9425      9417      9424      9420      9423      9425      9426
      9423      9425      9427      9423      9425      9428      9426      9425      9427
      9426      9425      9428      9427      9425      9428      9425      9428      9429
      9425      9428      9430      9425      9428      9436      9429      9428      9430
      9429      9428      9436      9430      9428      9436      9428      9430      9431
      9430      9431      9432      9430      9431      9433      9432      9431      9433
      9431      9433      9434      9431      9433      9435      9431      9433      9445
      9434      9433      9435      9434      9433      9445      9435      9433      9445
      9428      9436      9437      9428      9436      9438      9428      9436      9439
      9437      9436      9438      9437      9436      9439      9438      9436      9439
      9436      9439      9440      9439      9440      9441      9439      9440      9442
      9441      9440      9442      9440      9442      9443      9440      9442      9444
      9440      9442      9489      9443      9442      9444      9443      9442      9489
      9444      9442      9489      9433      9445      9446      9433      9445      9447
      9433      9445      9448      9446      9445      9447      9446      9445      9448
      9447      9445      9448      9445      9448      9449      9445      9448      9450
      9445      9448      9451      9449      9448      9450      9449      9448      9451
      9450      9448      9451      9448      9451      9452      9448      9451      9453
      9448      9451      9454      9452      9451      9453      9452      9451      9454
      9453      9451      9454      9451      9454      9455      9451      9454      9456
      9451      9454      9457      9455      9454      9456      9455      9454      9457
      9456      9454      9457      9454      9457      9458      9454      9457      9459
      9454      9457      9460      9458      9457      9459      9458      9457      9460
      9459      9457      9460      9457      9460      9461      9457      9460      9462
      9457      9460      9463      9461      9460      9462      9461      9460      9463
      9462      9460      9463      9460      9463      9464      9460      9463      9465
      9460      9463      9468      9464      9463      9465      9464      9463      9468
      9465      9463      9468      9463      9465      9466      9463      9465      9467
      9463      9465      9468      9466      9465      9467      9466      9465      9468
      9467      9465      9468      9463      9468      9465      9463      9468      9469
      9463      9468      9470      9465      9468      9469      9465      9468      9470
      9469      9468      9470      9468      9470      9471      9468      9470      9472
      9468      9470      9473      9471      9470      9472      9471      9470      9473
      9472      9470      9473      9470      9473      9474      9470      9473      9475
      9470      9473      9476      9474      9473      9475      9474      9473      9476
      9475      9473      9476      9473      9476      9477      9473      9476      9478
      9473      9476      9479      9477      9476      9478      9477      9476      9479
      9478      9476      9479      9476      9479      9480      9476      9479      9481
      9476      9479      9482      9480      9479      9481      9480      9479      9482
      9481      9479      9482      9479      9482      9483      9479      9482      9484
      9479      9482      9485      9483      9482      9484      9483      9482      9485
      9484      9482      9485      9482      9485      9486      9482      9485      9487
      9482      9485      9488      9486      9485      9487      9486      9485      9488
      9487      9485      9488      9442      9489      9490      9442      9489      9491
      9442      9489      9492      9490      9489      9491      9490      9489      9492
      9491      9489      9492      9489      9492      9493      9489      9492      9494
      9489      9492      9495      9493      9492      9494      9493      9492      9495
      9494      9492      9495      9492      9495      9496      9492      9495      9497
      9492      9495      9498      9496      9495      9497      9496      9495      9498
      9497      9495      9498      9495      9498      9499      9495      9498      9500
      9495      9498      9501      9499      9498      9500      9499      9498      9501
      9500      9498      9501      9498      9501      9502      9498      9501      9503
      9498      9501      9504      9502      9501      9503      9502      9501      9504
      9503      9501      9504      9501      9504      9505      9501      9504      9506
      9501      9504      9507      9505      9504      9506      9505      9504      9507
      9506      9504      9507      9504      9507      9508      9504      9507      9509
      9504      9507      9510      9508      9507      9509      9508      9507      9510
      9509      9507      9510      9507      9510      9511      9507      9510      9512
      9507      9510      9513      9511      9510      9512      9511      9510      9513
      9512      9510      9513      9510      9513      9514      9510      9513      9515
      9510      9513      9516      9514      9513      9515      9514      9513      9516
      9515      9513      9516      9513      9516      9517      9513      9516      9518
      9513      9516      9519      9517      9516      9518      9517      9516      9519
      9518      9516      9519      9516      9519      9520      9516      9519      9521
      9516      9519      9522      9520      9519      9521      9520      9519      9522
      9521      9519      9522      9519      9522      9523      9519      9522      9524
      9519      9522      9525      9523      9522      9524      9523      9522      9525
      9524      9522      9525      9522      9525      9526      9522      9525      9527
      9522      9525      9528      9526      9525      9527      9526      9525      9528
      9527      9525      9528      9525      9528      9529      9525      9528      9530
      9525      9528      9531      9529      9528      9530      9529      9528      9531
      9530      9528      9531      9533      9532      9534      9533      9532      9535
      9533      9532      9536      9534      9532      9535      9534      9532      9536
      9535      9532      9536      9532      9536      9537      9532      9536      9538
      9532      9536      9539      9537      9536      9538      9537      9536      9539
      9538      9536      9539      9536      9539      9540      9536      9539      9541
      9536      9539      9546      9540      9539      9541      9540      9539      9546
      9541      9539      9546      9543      9542      9544      9543      9542      9545
      9543      9542      9546      9544      9542      9545      9544      9542      9546
      9545      9542      9546      9542      9545      9547      9539      9546      9542
      9545      9547      9548      9545      9547      9549      9545      9547      9550
      9548      9547      9549      9548      9547      9550      9549      9547      9550
      9547      9550      9551      9547      9550      9552      9547      9550      9558
      9551      9550      9552      9551      9550      9558      9552      9550      9558
      9550      9552      9553      9552      9553      9554      9552      9553      9555
      9554      9553      9555      9553      9555      9556      9553      9555      9557
      9553      9555      9567      9556      9555      9557      9556      9555      9567
      9557      9555      9567      9550      9558      9559      9550      9558      9560
      9550      9558      9561      9559      9558      9560      9559      9558      9561
      9560      9558      9561      9558      9561      9562      9561      9562      9563
      9561      9562      9564      9563      9562      9564      9562      9564      9565
      9562      9564      9566      9562      9564      9614      9565      9564      9566
      9565      9564      9614      9566      9564      9614      9555      9567      9568
      9555      9567      9569      9555      9567      9570      9568      9567      9569
      9568      9567      9570      9569      9567      9570      9567      9570      9571
      9567      9570      9572      9567      9570      9573      9571      9570      9572
      9571      9570      9573      9572      9570      9573      9570      9573      9574
      9570      9573      9575      9570      9573      9576      9574      9573      9575
      9574      9573      9576      9575      9573      9576      9573      9576      9577
      9573      9576      9578      9573      9576      9579      9577      9576      9578
      9577      9576      9579      9578      9576      9579      9576      9579      9580
      9576      9579      9581      9576      9579      9582      9580      9579      9581
      9580      9579      9582      9581      9579      9582      9579      9582      9583
      9579      9582      9584      9579      9582      9585      9583      9582      9584
      9583      9582      9585      9584      9582      9585      9582      9585      9586
      9582      9585      9587      9586      9585      9587      9585      9587      9588
      9585      9587      9589      9588      9587      9589      9587      9589      9590
      9587      9589      9591      9587      9589      9592      9590      9589      9591
      9590      9589      9592      9591      9589      9592      9589      9592      9593
      9589      9592      9594      9589      9592      9595      9593      9592      9594
      9593      9592      9595      9594      9592      9595      9592      9595      9596
      9592      9595      9597      9592      9595      9598      9596      9595      9597
      9596      9595      9598      9597      9595      9598      9595      9598      9599
      9595      9598      9600      9595      9598      9601      9599      9598      9600
      9599      9598      9601      9600      9598      9601      9598      9601      9602
      9598      9601      9603      9598      9601      9604      9602      9601      9603
      9602      9601      9604      9603      9601      9604      9601      9604      9605
      9601      9604      9606      9601      9604      9607      9605      9604      9606
      9605      9604      9607      9606      9604      9607      9604      9607      9608
      9604      9607      9609      9604      9607      9610      9608      9607      9609
      9608      9607      9610      9609      9607      9610      9607      9610      9611
      9607      9610      9612      9607      9610      9613      9611      9610      9612
      9611      9610      9613      9612      9610      9613      9564      9614      9615
      9564      9614      9616      9564      9614      9617      9615      9614      9616
      9615      9614      9617      9616      9614      9617      9614      9617      9618
      9614      9617      9619      9614      9617      9620      9618      9617      9619
      9618      9617      9620      9619      9617      9620      9617      9620      9621
      9617      9620      9622      9617      9620      9623      9621      9620      9622
      9621      9620      9623      9622      9620      9623      9620      9623      9624
      9620      9623      9625      9620      9623      9626      9624      9623      9625
      9624      9623      9626      9625      9623      9626      9623      9626      9627
      9623      9626      9628      9623      9626      9629      9627      9626      9628
      9627      9626      9629      9628      9626      9629      9626      9629      9630
      9626      9629      9631      9626      9629      9632      9630      9629      9631
      9630      9629      9632      9631      9629      9632      9629      9632      9633
      9629      9632      9634      9629      9632      9635      9633      9632      9634
      9633      9632      9635      9634      9632      9635      9632      9635      9636
      9632      9635      9637      9632      9635      9638      9636      9635      9637
      9636      9635      9638      9637      9635      9638      9635      9638      9639
      9635      9638      9640      9635      9638      9641      9639      9638      9640
      9639      9638      9641      9640      9638      9641      9638      9641      9642
      9638      9641      9643      9638      9641      9644      9642      9641      9643
      9642      9641      9644      9643      9641      9644      9641      9644      9645
      9641      9644      9646      9641      9644      9647      9645      9644      9646
      9645      9644      9647      9646      9644      9647      9644      9647      9648
      9644      9647      9649      9644      9647      9650      9648      9647      9649
      9648      9647      9650      9649      9647      9650      9647      9650      9651
      9647      9650      9652      9647      9650      9653      9651      9650      9652
      9651      9650      9653      9652      9650      9653      9650      9653      9654
      9650      9653      9655      9650      9653      9656      9654      9653      9655
      9654      9653      9656      9655      9653      9656      9658      9657      9659
      9658      9657      9660      9658      9657      9661      9659      9657      9660
      9659      9657      9661      9660      9657      9661      9657      9661      9662
      9657      9661      9663      9657      9661      9664      9662      9661      9663
      9662      9661      9664      9663      9661      9664      9661      9664      9665
      9661      9664      9666      9661      9664      9671      9665      9664      9666
      9665      9664      9671      9666      9664      9671      9668      9667      9669
      9668      9667      9670      9668      9667      9671      9669      9667      9670
      9669      9667      9671      9670      9667      9671      9667      9670      9672
      9664      9671      9667      9670      9672      9673      9670      9672      9674
      9670      9672      9675      9673      9672      9674      9673      9672      9675
      9674      9672      9675      9672      9675      9676      9672      9675      9677
      9672      9675      9683      9676      9675      9677      9676      9675      9683
      9677      9675      9683      9675      9677      9678      9677      9678      9679
      9677      9678      9680      9679      9678      9680      9678      9680      9681
      9678      9680      9682      9678      9680      9692      9681      9680      9682
      9681      9680      9692      9682      9680      9692      9675      9683      9684
      9675      9683      9685      9675      9683      9686      9684      9683      9685
      9684      9683      9686      9685      9683      9686      9683      9686      9687
      9686      9687      9688      9686      9687      9689      9688      9687      9689
      9687      9689      9690      9687      9689      9691      9687      9689      9736
      9690      9689      9691      9690      9689      9736      9691      9689      9736
      9680      9692      9693      9680      9692      9694      9680      9692      9695
      9693      9692      9694      9693      9692      9695      9694      9692      9695
      9692      9695      9696      9692      9695      9697      9692      9695      9698
      9696      9695      9697      9696      9695      9698      9697      9695      9698
      9695      9698      9699      9695      9698      9700      9695      9698      9701
      9699      9698      9700      9699      9698      9701      9700      9698      9701
      9698      9701      9702      9698      9701      9703      9698      9701      9704
      9702      9701      9703      9702      9701      9704      9703      9701      9704
      9701      9704      9705      9701      9704      9706      9701      9704      9707
      9705      9704      9706      9705      9704      9707      9706      9704      9707
      9704      9707      9708      9704      9707      9709      9704      9707      9710
      9708      9707      9709      9708      9707      9710      9709      9707      9710
      9707      9710      9711      9707      9710      9712      9707      9710      9715
      9711      9710      9712      9711      9710      9715      9712      9710      9715
      9710      9712      9713      9710      9712      9714      9710      9712      9715
      9713      9712      9714      9713      9712      9715      9714      9712      9715
      9710      9715      9712      9710      9715      9716      9710      9715      9717
      9712      9715      9716      9712      9715      9717      9716      9715      9717
      9715      9717      9718      9715      9717      9719      9715      9717      9720
      9718      9717      9719      9718      9717      9720      9719      9717      9720
      9717      9720      9721      9717      9720      9722      9717      9720      9723
      9721      9720      9722      9721      9720      9723      9722      9720      9723
      9720      9723      9724      9720      9723      9725      9720      9723      9726
      9724      9723      9725      9724      9723      9726      9725      9723      9726
      9723      9726      9727      9723      9726      9728      9723      9726      9729
      9727      9726      9728      9727      9726      9729      9728      9726      9729
      9726      9729      9730      9726      9729      9731      9726      9729      9732
      9730      9729      9731      9730      9729      9732      9731      9729      9732
      9729      9732      9733      9729      9732      9734      9729      9732      9735
      9733      9732      9734      9733      9732      9735      9734      9732      9735
      9689      9736      9737      9689      9736      9738      9689      9736      9739
      9737      9736      9738      9737      9736      9739      9738      9736      9739
      9736      9739      9740      9736      9739      9741      9736      9739      9742
      9740      9739      9741      9740      9739      9742      9741      9739      9742
      9739      9742      9743      9739      9742      9744      9739      9742      9745
      9743      9742      9744      9743      9742      9745      9744      9742      9745
      9742      9745      9746      9742      9745      9747      9742      9745      9748
      9746      9745      9747      9746      9745      9748      9747      9745      9748
      9745      9748      9749      9745      9748      9750      9745      9748      9751
      9749      9748      9750      9749      9748      9751      9750      9748      9751
      9748      9751      9752      9748      9751      9753      9748      9751      9754
      9752      9751      9753      9752      9751      9754      9753      9751      9754
      9751      9754      9755      9751      9754      9756      9751      9754      9757
      9755      9754      9756      9755      9754      9757      9756      9754      9757
      9754      9757      9758      9754      9757      9759      9754      9757      9760
      9758      9757      9759      9758      9757      9760      9759      9757      9760
      9757      9760      9761      9757      9760      9762      9757      9760      9763
      9761      9760      9762      9761      9760      9763      9762      9760      9763
      9760      9763      9764      9760      9763      9765      9760      9763      9766
      9764      9763      9765      9764      9763      9766      9765      9763      9766
      9763      9766      9767      9763      9766      9768      9763      9766      9769
      9767      9766      9768      9767      9766      9769      9768      9766      9769
      9766      9769      9770      9766      9769      9771      9766      9769      9772
      9770      9769      9771      9770      9769      9772      9771      9769      9772
      9769      9772      9773      9769      9772      9774      9769      9772      9775
      9773      9772      9774      9773      9772      9775      9774      9772      9775
      9777      9776      9778      9777      9776      9779      9777      9776      9780
      9778      9776      9779      9778      9776      9780      9779      9776      9780
      9776      9780      9781      9776      9780      9782      9776      9780      9783
      9781      9780      9782      9781      9780      9783      9782      9780      9783
      9780      9783      9784      9780      9783      9785      9780      9783      9790
      9784      9783      9785      9784      9783      9790      9785      9783      9790
      9787      9786      9788      9787      9786      9789      9787      9786      9790
      9788      9786      9789      9788      9786      9790      9789      9786      9790
      9786      9789      9791      9783      9790      9786      9789      9791      9792
      9789      9791      9793      9789      9791      9794      9792      9791      9793
      9792      9791      9794      9793      9791      9794      9791      9794      9795
      9791      9794      9796      9791      9794      9802      9795      9794      9796
      9795      9794      9802      9796      9794      9802      9794      9796      9797
      9796      9797      9798      9796      9797      9799      9798      9797      9799
      9797      9799      9800      9797      9799      9801      9797      9799      9811
      9800      9799      9801      9800      9799      9811      9801      9799      9811
      9794      9802      9803      9794      9802      9804      9794      9802      9805
      9803      9802      9804      9803      9802      9805      9804      9802      9805
      9802      9805      9806      9805      9806      9807      9805      9806      9808
      9807      9806      9808      9806      9808      9809      9806      9808      9810
      9806      9808      9855      9809      9808      9810      9809      9808      9855
      9810      9808      9855      9799      9811      9812      9799      9811      9813
      9799      9811      9814      9812      9811      9813      9812      9811      9814
      9813      9811      9814      9811      9814      9815      9811      9814      9816
      9811      9814      9817      9815      9814      9816      9815      9814      9817
      9816      9814      9817      9814      9817      9818      9814      9817      9819
      9814      9817      9820      9818      9817      9819      9818      9817      9820
      9819      9817      9820      9817      9820      9821      9817      9820      9822
      9817      9820      9823      9821      9820      9822      9821      9820      9823
      9822      9820      9823      9820      9823      9824      9820      9823      9825
      9820      9823      9826      9824      9823      9825      9824      9823      9826
      9825      9823      9826      9823      9826      9827      9823      9826      9828
      9823      9826      9829      9827      9826      9828      9827      9826      9829
      9828      9826      9829      9826      9829      9830      9826      9829      9831
      9826      9829      9834      9830      9829      9831      9830      9829      9834
      9831      9829      9834      9829      9831      9832      9829      9831      9833
      9829      9831      9834      9832      9831      9833      9832      9831      9834
      9833      9831      9834      9829      9834      9831      9829      9834      9835
      9829      9834      9836      9831      9834      9835      9831      9834      9836
      9835      9834      9836      9834      9836      9837      9834      9836      9838
      9834      9836      9839      9837      9836      9838      9837      9836      9839
      9838      9836      9839      9836      9839      9840      9836      9839      9841
      9836      9839      9842      9840      9839      9841      9840      9839      9842
      9841      9839      9842      9839      9842      9843      9839      9842      9844
      9839      9842      9845      9843      9842      9844      9843      9842      9845
      9844      9842      9845      9842      9845      9846      9842      9845      9847
      9842      9845      9848      9846      9845      9847      9846      9845      9848
      9847      9845      9848      9845      9848      9849      9845      9848      9850
      9845      9848      9851      9849      9848      9850      9849      9848      9851
      9850      9848      9851      9848      9851      9852      9848      9851      9853
      9848      9851      9854      9852      9851      9853      9852      9851      9854
      9853      9851      9854      9808      9855      9856      9808      9855      9857
      9808      9855      9858      9856      9855      9857      9856      9855      9858
      9857      9855      9858      9855      9858      9859      9855      9858      9860
      9855      9858      9861      9859      9858      9860      9859      9858      9861
      9860      9858      9861      9858      9861      9862      9858      9861      9863
      9858      9861      9864      9862      9861      9863      9862      9861      9864
      9863      9861      9864      9861      9864      9865      9861      9864      9866
      9861      9864      9867      9865      9864      9866      9865      9864      9867
      9866      9864      9867      9864      9867      9868      9864      9867      9869
      9864      9867      9870      9868      9867      9869      9868      9867      9870
      9869      9867      9870      9867      9870      9871      9867      9870      9872
      9867      9870      9873      9871      9870      9872      9871      9870      9873
      9872      9870      9873      9870      9873      9874      9870      9873      9875
      9870      9873      9876      9874      9873      9875      9874      9873      9876
      9875      9873      9876      9873      9876      9877      9873      9876      9878
      9873      9876      9879      9877      9876      9878      9877      9876      9879
      9878      9876      9879      9876      9879      9880      9876      9879      9881
      9876      9879      9882      9880      9879      9881      9880      9879      9882
      9881      9879      9882      9879      9882      9883      9879      9882      9884
      9879      9882      9885      9883      9882      9884      9883      9882      9885
      9884      9882      9885      9882      9885      9886      9882      9885      9887
      9882      9885      9888      9886      9885      9887      9886      9885      9888
      9887      9885      9888      9885      9888      9889      9885      9888      9890
      9885      9888      9891      9889      9888      9890      9889      9888      9891
      9890      9888      9891      9888      9891      9892      9888      9891      9893
      9888      9891      9894      9892      9891      9893      9892      9891      9894
      9893      9891      9894      9891      9894      9895      9891      9894      9896
      9891      9894      9897      9895      9894      9896      9895      9894      9897
      9896      9894      9897      9899      9898      9900      9899      9898      9901
      9899      9898      9902      9900      9898      9901      9900      9898      9902
      9901      9898      9902      9898      9902      9903      9898      9902      9904
      9898      9902      9905      9903      9902      9904      9903      9902      9905
      9904      9902      9905      9902      9905      9906      9902      9905      9907
      9902      9905      9912      9906      9905      9907      9906      9905      9912
      9907      9905      9912      9909      9908      9910      9909      9908      9911
      9909      9908      9912      9910      9908      9911      9910      9908      9912
      9911      9908      9912      9908      9911      9913      9905      9912      9908
      9911      9913      9914      9911      9913      9915      9911      9913      9916
      9914      9913      9915      9914      9913      9916      9915      9913      9916
      9913      9916      9917      9913      9916      9918      9913      9916      9924
      9917      9916      9918      9917      9916      9924      9918      9916      9924
      9916      9918      9919      9918      9919      9920      9918      9919      9921
      9920      9919      9921      9919      9921      9922      9919      9921      9923
      9919      9921      9933      9922      9921      9923      9922      9921      9933
      9923      9921      9933      9916      9924      9925      9916      9924      9926
      9916      9924      9927      9925      9924      9926      9925      9924      9927
      9926      9924      9927      9924      9927      9928      9927      9928      9929
      9927      9928      9930      9929      9928      9930      9928      9930      9931
      9928      9930      9932      9928      9930      9977      9931      9930      9932
      9931      9930      9977      9932      9930      9977      9921      9933      9934
      9921      9933      9935      9921      9933      9936      9934      9933      9935
      9934      9933      9936      9935      9933      9936      9933      9936      9937
      9933      9936      9938      9933      9936      9939      9937      9936      9938
      9937      9936      9939      9938      9936      9939      9936      9939      9940
      9936      9939      9941      9936      9939      9942      9940      9939      9941
      9940      9939      9942      9941      9939      9942      9939      9942      9943
      9939      9942      9944      9939      9942      9945      9943      9942      9944
      9943      9942      9945      9944      9942      9945      9942      9945      9946
      9942      9945      9947      9942      9945      9948      9946      9945      9947
      9946      9945      9948      9947      9945      9948      9945      9948      9949
      9945      9948      9950      9945      9948      9951      9949      9948      9950
      9949      9948      9951      9950      9948      9951      9948      9951      9952
      9948      9951      9953      9948      9951      9956      9952      9951      9953
      9952      9951      9956      9953      9951      9956      9951      9953      9954
      9951      9953      9955      9951      9953      9956      9954      9953      9955
      9954      9953      9956      9955      9953      9956      9951      9956      9953
      9951      9956      9957      9951      9956      9958      9953      9956      9957
      9953      9956      9958      9957      9956      9958      9956      9958      9959
      9956      9958      9960      9956      9958      9961      9959      9958      9960
      9959      9958      9961      9960      9958      9961      9958      9961      9962
      9958      9961      9963      9958      9961      9964      9962      9961      9963
      9962      9961      9964      9963      9961      9964      9961      9964      9965
      9961      9964      9966      9961      9964      9967      9965      9964      9966
      9965      9964      9967      9966      9964      9967      9964      9967      9968
      9964      9967      9969      9964      9967      9970      9968      9967      9969
      9968      9967      9970      9969      9967      9970      9967      9970      9971
      9967      9970      9972      9967      9970      9973      9971      9970      9972
      9971      9970      9973      9972      9970      9973      9970      9973      9974
      9970      9973      9975      9970      9973      9976      9974      9973      9975
      9974      9973      9976      9975      9973      9976      9930      9977      9978
      9930      9977      9979      9930      9977      9980      9978      9977      9979
      9978      9977      9980      9979      9977      9980      9977      9980      9981
      9977      9980      9982      9977      9980      9983      9981      9980      9982
      9981      9980      9983      9982      9980      9983      9980      9983      9984
      9980      9983      9985      9980      9983      9986      9984      9983      9985
      9984      9983      9986      9985      9983      9986      9983      9986      9987
      9983      9986      9988      9983      9986      9989      9987      9986      9988
      9987      9986      9989      9988      9986      9989      9986      9989      9990
      9986      9989      9991      9986      9989      9992      9990      9989      9991
      9990      9989      9992      9991      9989      9992      9989      9992      9993
      9989      9992      9994      9989      9992      9995      9993      9992      9994
      9993      9992      9995      9994      9992      9995      9992      9995      9996
      9992      9995      9997      9992      9995      9998      9996      9995      9997
      9996      9995      9998      9997      9995      9998      9995      9998      9999
      9995      9998     10000      9995      9998     10001      9999      9998     10000
      9999      9998     10001     10000      9998     10001      9998     10001     10002
      9998     10001     10003      9998     10001     10004     10002     10001     10003
     10002     10001     10004     10003     10001     10004     10001     10004     10005
     10001     10004     10006     10001     10004     10007     10005     10004     10006
     10005     10004     10007     10006     10004     10007     10004     10007     10008
     10004     10007     10009     10004     10007     10010     10008     10007     10009
     10008     10007     10010     10009     10007     10010     10007     10010     10011
     10007     10010     10012     10007     10010     10013     10011     10010     10012
     10011     10010     10013     10012     10010     10013     10010     10013     10014
     10010     10013     10015     10010     10013     10016     10014     10013     10015
     10014     10013     10016     10015     10013     10016     10018     10017     10019
     10018     10017     10020     10018     10017     10021     10019     10017     10020
     10019     10017     10021     10020     10017     10021     10017     10021     10022
     10017     10021     10023     10017     10021     10024     10022     10021     10023
     10022     10021     10024     10023     10021     10024     10021     10024     10025
     10021     10024     10026     10021     10024     10031     10025     10024     10026
     10025     10024     10031     10026     10024     10031     10028     10027     10029
     10028     10027     10030     10028     10027     10031     10029     10027     10030
     10029     10027     10031     10030     10027     10031     10027     10030     10032
     10024     10031     10027     10030     10032     10033     10030     10032     10034
     10030     10032     10035     10033     10032     10034     10033     10032     10035
     10034     10032     10035     10032     10035     10036     10032     10035     10037
     10032     10035     10043     10036     10035     10037     10036     10035     10043
     10037     10035     10043     10035     10037     10038     10037     10038     10039
     10037     10038     10040     10039     10038     10040     10038     10040     10041
     10038     10040     10042     10038     10040     10052     10041     10040     10042
     10041     10040     10052     10042     10040     10052     10035     10043     10044
     10035     10043     10045     10035     10043     10046     10044     10043     10045
     10044     10043     10046     10045     10043     10046     10043     10046     10047
     10046     10047     10048     10046     10047     10049     10048     10047     10049
     10047     10049     10050     10047     10049     10051     10047     10049     10096
     10050     10049     10051     10050     10049     10096     10051     10049     10096
     10040     10052     10053     10040     10052     10054     10040     10052     10055
     10053     10052     10054     10053     10052     10055     10054     10052     10055
     10052     10055     10056     10052     10055     10057     10052     10055     10058
     10056     10055     10057     10056     10055     10058     10057     10055     10058
     10055     10058     10059     10055     10058     10060     10055     10058     10061
     10059     10058     10060     10059     10058     10061     10060     10058     10061
     10058     10061     10062     10058     10061     10063     10058     10061     10064
     10062     10061     10063     10062     10061     10064     10063     10061     10064
     10061     10064     10065     10061     10064     10066     10061     10064     10067
     10065     10064     10066     10065     10064     10067     10066     10064     10067
     10064     10067     10068     10064     10067     10069     10064     10067     10070
     10068     10067     10069     10068     10067     10070     10069     10067     10070
     10067     10070     10071     10067     10070     10072     10067     10070     10075
     10071     10070     10072     10071     10070     10075     10072     10070     10075
     10070     10072     10073     10070     10072     10074     10070     10072     10075
     10073     10072     10074     10073     10072     10075     10074     10072     10075
     10070     10075     10072     10070     10075     10076     10070     10075     10077
     10072     10075     10076     10072     10075     10077     10076     10075     10077
     10075     10077     10078     10075     10077     10079     10075     10077     10080
     10078     10077     10079     10078     10077     10080     10079     10077     10080
     10077     10080     10081     10077     10080     10082     10077     10080     10083
     10081     10080     10082     10081     10080     10083     10082     10080     10083
     10080     10083     10084     10080     10083     10085     10080     10083     10086
     10084     10083     10085     10084     10083     10086     10085     10083     10086
     10083     10086     10087     10083     10086     10088     10083     10086     10089
     10087     10086     10088     10087     10086     10089     10088     10086     10089
     10086     10089     10090     10086     10089     10091     10086     10089     10092
     10090     10089     10091     10090     10089     10092     10091     10089     10092
     10089     10092     10093     10089     10092     10094     10089     10092     10095
     10093     10092     10094     10093     10092     10095     10094     10092     10095
     10049     10096     10097     10049     10096     10098     10049     10096     10099
     10097     10096     10098     10097     10096     10099     10098     10096     10099
     10096     10099     10100     10096     10099     10101     10096     10099     10102
     10100     10099     10101     10100     10099     10102     10101     10099     10102
     10099     10102     10103     10099     10102     10104     10099     10102     10105
     10103     10102     10104     10103     10102     10105     10104     10102     10105
     10102     10105     10106     10102     10105     10107     10102     10105     10108
     10106     10105     10107     10106     10105     10108     10107     10105     10108
     10105     10108     10109     10105     10108     10110     10105     10108     10111
     10109     10108     10110     10109     10108     10111     10110     10108     10111
     10108     10111     10112     10108     10111     10113     10108     10111     10114
     10112     10111     10113     10112     10111     10114     10113     10111     10114
     10111     10114     10115     10111     10114     10116     10111     10114     10117
     10115     10114     10116     10115     10114     10117     10116     10114     10117
     10114     10117     10118     10114     10117     10119     10114     10117     10120
     10118     10117     10119     10118     10117     10120     10119     10117     10120
     10117     10120     10121     10117     10120     10122     10117     10120     10123
     10121     10120     10122     10121     10120     10123     10122     10120     10123
     10120     10123     10124     10120     10123     10125     10120     10123     10126
     10124     10123     10125     10124     10123     10126     10125     10123     10126
     10123     10126     10127     10123     10126     10128     10123     10126     10129
     10127     10126     10128     10127     10126     10129     10128     10126     10129
     10126     10129     10130     10126     10129     10131     10126     10129     10132
     10130     10129     10131     10130     10129     10132     10131     10129     10132
     10129     10132     10133     10129     10132     10134     10129     10132     10135
     10133     10132     10134     10133     10132     10135     10134     10132     10135
     10132     10135     10136     10132     10135     10137     10132     10135     10138
     10136     10135     10137     10136     10135     10138     10137     10135     10138
     10140     10139     10141     10140     10139     10142     10140     10139     10143
     10141     10139     10142     10141     10139     10143     10142     10139     10143
     10139     10143     10144     10139     10143     10145     10139     10143     10146
     10144     10143     10145     10144     10143     10146     10145     10143     10146
     10143     10146     10147     10143     10146     10148     10143     10146     10153
     10147     10146     10148     10147     10146     10153     10148     10146     10153
     10150     10149     10151     10150     10149     10152     10150     10149     10153
     10151     10149     10152     10151     10149     10153     10152     10149     10153
     10149     10152     10154     10146     10153     10149     10152     10154     10155
     10152     10154     10156     10152     10154     10157     10155     10154     10156
     10155     10154     10157     10156     10154     10157     10154     10157     10158
     10154     10157     10159     10154     10157     10165     10158     10157     10159
     10158     10157     10165     10159     10157     10165     10157     10159     10160
     10159     10160     10161     10159     10160     10162     10161     10160     10162
     10160     10162     10163     10160     10162     10164     10160     10162     10174
     10163     10162     10164     10163     10162     10174     10164     10162     10174
     10157     10165     10166     10157     10165     10167     10157     10165     10168
     10166     10165     10167     10166     10165     10168     10167     10165     10168
     10165     10168     10169     10168     10169     10170     10168     10169     10171
     10170     10169     10171     10169     10171     10172     10169     10171     10173
     10169     10171     10218     10172     10171     10173     10172     10171     10218
     10173     10171     10218     10162     10174     10175     10162     10174     10176
     10162     10174     10177     10175     10174     10176     10175     10174     10177
     10176     10174     10177     10174     10177     10178     10174     10177     10179
     10174     10177     10180     10178     10177     10179     10178     10177     10180
     10179     10177     10180     10177     10180     10181     10177     10180     10182
     10177     10180     10183     10181     10180     10182     10181     10180     10183
     10182     10180     10183     10180     10183     10184     10180     10183     10185
     10180     10183     10186     10184     10183     10185     10184     10183     10186
     10185     10183     10186     10183     10186     10187     10183     10186     10188
     10183     10186     10189     10187     10186     10188     10187     10186     10189
     10188     10186     10189     10186     10189     10190     10186     10189     10191
     10186     10189     10192     10190     10189     10191     10190     10189     10192
     10191     10189     10192     10189     10192     10193     10189     10192     10194
     10189     10192     10197     10193     10192     10194     10193     10192     10197
     10194     10192     10197     10192     10194     10195     10192     10194     10196
     10192     10194     10197     10195     10194     10196     10195     10194     10197
     10196     10194     10197     10192     10197     10194     10192     10197     10198
     10192     10197     10199     10194     10197     10198     10194     10197     10199
     10198     10197     10199     10197     10199     10200     10197     10199     10201
     10197     10199     10202     10200     10199     10201     10200     10199     10202
     10201     10199     10202     10199     10202     10203     10199     10202     10204
     10199     10202     10205     10203     10202     10204     10203     10202     10205
     10204     10202     10205     10202     10205     10206     10202     10205     10207
     10202     10205     10208     10206     10205     10207     10206     10205     10208
     10207     10205     10208     10205     10208     10209     10205     10208     10210
     10205     10208     10211     10209     10208     10210     10209     10208     10211
     10210     10208     10211     10208     10211     10212     10208     10211     10213
     10208     10211     10214     10212     10211     10213     10212     10211     10214
     10213     10211     10214     10211     10214     10215     10211     10214     10216
     10211     10214     10217     10215     10214     10216     10215     10214     10217
     10216     10214     10217     10171     10218     10219     10171     10218     10220
     10171     10218     10221     10219     10218     10220     10219     10218     10221
     10220     10218     10221     10218     10221     10222     10218     10221     10223
     10218     10221     10224     10222     10221     10223     10222     10221     10224
     10223     10221     10224     10221     10224     10225     10221     10224     10226
     10221     10224     10227     10225     10224     10226     10225     10224     10227
     10226     10224     10227     10224     10227     10228     10224     10227     10229
     10224     10227     10230     10228     10227     10229     10228     10227     10230
     10229     10227     10230     10227     10230     10231     10227     10230     10232
     10227     10230     10233     10231     10230     10232     10231     10230     10233
     10232     10230     10233     10230     10233     10234     10230     10233     10235
     10230     10233     10236     10234     10233     10235     10234     10233     10236
     10235     10233     10236     10233     10236     10237     10233     10236     10238
     10233     10236     10239     10237     10236     10238     10237     10236     10239
     10238     10236     10239     10236     10239     10240     10236     10239     10241
     10236     10239     10242     10240     10239     10241     10240     10239     10242
     10241     10239     10242     10239     10242     10243     10239     10242     10244
     10239     10242     10245     10243     10242     10244     10243     10242     10245
     10244     10242     10245     10242     10245     10246     10242     10245     10247
     10242     10245     10248     10246     10245     10247     10246     10245     10248
     10247     10245     10248     10245     10248     10249     10245     10248     10250
     10245     10248     10251     10249     10248     10250     10249     10248     10251
     10250     10248     10251     10248     10251     10252     10248     10251     10253
     10248     10251     10254     10252     10251     10253     10252     10251     10254
     10253     10251     10254     10251     10254     10255     10251     10254     10256
     10251     10254     10257     10255     10254     10256     10255     10254     10257
     10256     10254     10257     10259     10258     10260     10259     10258     10261
     10259     10258     10262     10260     10258     10261     10260     10258     10262
     10261     10258     10262     10258     10262     10263     10258     10262     10264
     10258     10262     10265     10263     10262     10264     10263     10262     10265
     10264     10262     10265     10262     10265     10266     10262     10265     10267
     10262     10265     10272     10266     10265     10267     10266     10265     10272
     10267     10265     10272     10269     10268     10270     10269     10268     10271
     10269     10268     10272     10270     10268     10271     10270     10268     10272
     10271     10268     10272     10268     10271     10273     10265     10272     10268
     10271     10273     10274     10271     10273     10275     10271     10273     10276
     10274     10273     10275     10274     10273     10276     10275     10273     10276
     10273     10276     10277     10273     10276     10278     10273     10276     10284
     10277     10276     10278     10277     10276     10284     10278     10276     10284
     10276     10278     10279     10278     10279     10280     10278     10279     10281
     10280     10279     10281     10279     10281     10282     10279     10281     10283
     10279     10281     10293     10282     10281     10283     10282     10281     10293
     10283     10281     10293     10276     10284     10285     10276     10284     10286
     10276     10284     10287     10285     10284     10286     10285     10284     10287
     10286     10284     10287     10284     10287     10288     10287     10288     10289
     10287     10288     10290     10289     10288     10290     10288     10290     10291
     10288     10290     10292     10288     10290     10340     10291     10290     10292
     10291     10290     10340     10292     10290     10340     10281     10293     10294
     10281     10293     10295     10281     10293     10296     10294     10293     10295
     10294     10293     10296     10295     10293     10296     10293     10296     10297
     10293     10296     10298     10293     10296     10299     10297     10296     10298
     10297     10296     10299     10298     10296     10299     10296     10299     10300
     10296     10299     10301     10296     10299     10302     10300     10299     10301
     10300     10299     10302     10301     10299     10302     10299     10302     10303
     10299     10302     10304     10299     10302     10305     10303     10302     10304
     10303     10302     10305     10304     10302     10305     10302     10305     10306
     10302     10305     10307     10302     10305     10308     10306     10305     10307
     10306     10305     10308     10307     10305     10308     10305     10308     10309
     10305     10308     10310     10305     10308     10311     10309     10308     10310
     10309     10308     10311     10310     10308     10311     10308     10311     10312
     10308     10311     10313     10312     10311     10313     10311     10313     10314
     10311     10313     10315     10314     10313     10315     10313     10315     10316
     10313     10315     10317     10313     10315     10318     10316     10315     10317
     10316     10315     10318     10317     10315     10318     10315     10318     10319
     10315     10318     10320     10315     10318     10321     10319     10318     10320
     10319     10318     10321     10320     10318     10321     10318     10321     10322
     10318     10321     10323     10318     10321     10324     10322     10321     10323
     10322     10321     10324     10323     10321     10324     10321     10324     10325
     10321     10324     10326     10321     10324     10327     10325     10324     10326
     10325     10324     10327     10326     10324     10327     10324     10327     10328
     10324     10327     10329     10324     10327     10330     10328     10327     10329
     10328     10327     10330     10329     10327     10330     10327     10330     10331
     10327     10330     10332     10327     10330     10333     10331     10330     10332
     10331     10330     10333     10332     10330     10333     10330     10333     10334
     10330     10333     10335     10330     10333     10336     10334     10333     10335
     10334     10333     10336     10335     10333     10336     10333     10336     10337
     10333     10336     10338     10333     10336     10339     10337     10336     10338
     10337     10336     10339     10338     10336     10339     10290     10340     10341
     10290     10340     10342     10290     10340     10343     10341     10340     10342
     10341     10340     10343     10342     10340     10343     10340     10343     10344
     10340     10343     10345     10340     10343     10346     10344     10343     10345
     10344     10343     10346     10345     10343     10346     10343     10346     10347
     10343     10346     10348     10343     10346     10349     10347     10346     10348
     10347     10346     10349     10348     10346     10349     10346     10349     10350
     10346     10349     10351     10346     10349     10352     10350     10349     10351
     10350     10349     10352     10351     10349     10352     10349     10352     10353
     10349     10352     10354     10349     10352     10355     10353     10352     10354
     10353     10352     10355     10354     10352     10355     10352     10355     10356
     10352     10355     10357     10352     10355     10358     10356     10355     10357
     10356     10355     10358     10357     10355     10358     10355     10358     10359
     10355     10358     10360     10355     10358     10361     10359     10358     10360
     10359     10358     10361     10360     10358     10361     10358     10361     10362
     10358     10361     10363     10358     10361     10364     10362     10361     10363
     10362     10361     10364     10363     10361     10364     10361     10364     10365
     10361     10364     10366     10361     10364     10367     10365     10364     10366
     10365     10364     10367     10366     10364     10367     10364     10367     10368
     10364     10367     10369     10364     10367     10370     10368     10367     10369
     10368     10367     10370     10369     10367     10370     10367     10370     10371
     10367     10370     10372     10367     10370     10373     10371     10370     10372
     10371     10370     10373     10372     10370     10373     10370     10373     10374
     10370     10373     10375     10370     10373     10376     10374     10373     10375
     10374     10373     10376     10375     10373     10376     10373     10376     10377
     10373     10376     10378     10373     10376     10379     10377     10376     10378
     10377     10376     10379     10378     10376     10379     10376     10379     10380
     10376     10379     10381     10376     10379     10382     10380     10379     10381
     10380     10379     10382     10381     10379     10382     10384     10383     10385
     10384     10383     10386     10384     10383     10387     10385     10383     10386
     10385     10383     10387     10386     10383     10387     10383     10387     10388
     10383     10387     10389     10383     10387     10390     10388     10387     10389
     10388     10387     10390     10389     10387     10390     10387     10390     10391
     10387     10390     10392     10387     10390     10397     10391     10390     10392
     10391     10390     10397     10392     10390     10397     10394     10393     10395
     10394     10393     10396     10394     10393     10397     10395     10393     10396
     10395     10393     10397     10396     10393     10397     10393     10396     10398
     10390     10397     10393     10396     10398     10399     10396     10398     10400
     10396     10398     10401     10399     10398     10400     10399     10398     10401
     10400     10398     10401     10398     10401     10402     10398     10401     10403
     10398     10401     10409     10402     10401     10403     10402     10401     10409
     10403     10401     10409     10401     10403     10404     10403     10404     10405
     10403     10404     10406     10405     10404     10406     10404     10406     10407
     10404     10406     10408     10404     10406     10418     10407     10406     10408
     10407     10406     10418     10408     10406     10418     10401     10409     10410
     10401     10409     10411     10401     10409     10412     10410     10409     10411
     10410     10409     10412     10411     10409     10412     10409     10412     10413
     10412     10413     10414     10412     10413     10415     10414     10413     10415
     10413     10415     10416     10413     10415     10417     10413     10415     10465
     10416     10415     10417     10416     10415     10465     10417     10415     10465
     10406     10418     10419     10406     10418     10420     10406     10418     10421
     10419     10418     10420     10419     10418     10421     10420     10418     10421
     10418     10421     10422     10418     10421     10423     10418     10421     10424
     10422     10421     10423     10422     10421     10424     10423     10421     10424
     10421     10424     10425     10421     10424     10426     10421     10424     10427
     10425     10424     10426     10425     10424     10427     10426     10424     10427
     10424     10427     10428     10424     10427     10429     10424     10427     10430
     10428     10427     10429     10428     10427     10430     10429     10427     10430
     10427     10430     10431     10427     10430     10432     10427     10430     10433
     10431     10430     10432     10431     10430     10433     10432     10430     10433
     10430     10433     10434     10430     10433     10435     10430     10433     10436
     10434     10433     10435     10434     10433     10436     10435     10433     10436
     10433     10436     10437     10433     10436     10438     10437     10436     10438
     10436     10438     10439     10436     10438     10440     10439     10438     10440
     10438     10440     10441     10438     10440     10442     10438     10440     10443
     10441     10440     10442     10441     10440     10443     10442     10440     10443
     10440     10443     10444     10440     10443     10445     10440     10443     10446
     10444     10443     10445     10444     10443     10446     10445     10443     10446
     10443     10446     10447     10443     10446     10448     10443     10446     10449
     10447     10446     10448     10447     10446     10449     10448     10446     10449
     10446     10449     10450     10446     10449     10451     10446     10449     10452
     10450     10449     10451     10450     10449     10452     10451     10449     10452
     10449     10452     10453     10449     10452     10454     10449     10452     10455
     10453     10452     10454     10453     10452     10455     10454     10452     10455
     10452     10455     10456     10452     10455     10457     10452     10455     10458
     10456     10455     10457     10456     10455     10458     10457     10455     10458
     10455     10458     10459     10455     10458     10460     10455     10458     10461
     10459     10458     10460     10459     10458     10461     10460     10458     10461
     10458     10461     10462     10458     10461     10463     10458     10461     10464
     10462     10461     10463     10462     10461     10464     10463     10461     10464
     10415     10465     10466     10415     10465     10467     10415     10465     10468
     10466     10465     10467     10466     10465     10468     10467     10465     10468
     10465     10468     10469     10465     10468     10470     10465     10468     10471
     10469     10468     10470     10469     10468     10471     10470     10468     10471
     10468     10471     10472     10468     10471     10473     10468     10471     10474
     10472     10471     10473     10472     10471     10474     10473     10471     10474
     10471     10474     10475     10471     10474     10476     10471     10474     10477
     10475     10474     10476     10475     10474     10477     10476     10474     10477
     10474     10477     10478     10474     10477     10479     10474     10477     10480
     10478     10477     10479     10478     10477     10480     10479     10477     10480
     10477     10480     10481     10477     10480     10482     10477     10480     10483
     10481     10480     10482     10481     10480     10483     10482     10480     10483
     10480     10483     10484     10480     10483     10485     10480     10483     10486
     10484     10483     10485     10484     10483     10486     10485     10483     10486
     10483     10486     10487     10483     10486     10488     10483     10486     10489
     10487     10486     10488     10487     10486     10489     10488     10486     10489
     10486     10489     10490     10486     10489     10491     10486     10489     10492
     10490     10489     10491     10490     10489     10492     10491     10489     10492
     10489     10492     10493     10489     10492     10494     10489     10492     10495
     10493     10492     10494     10493     10492     10495     10494     10492     10495
     10492     10495     10496     10492     10495     10497     10492     10495     10498
     10496     10495     10497     10496     10495     10498     10497     10495     10498
     10495     10498     10499     10495     10498     10500     10495     10498     10501
     10499     10498     10500     10499     10498     10501     10500     10498     10501
     10498     10501     10502     10498     10501     10503     10498     10501     10504
     10502     10501     10503     10502     10501     10504     10503     10501     10504
     10501     10504     10505     10501     10504     10506     10501     10504     10507
     10505     10504     10506     10505     10504     10507     10506     10504     10507
     10509     10508     10510     10509     10508     10511     10509     10508     10512
     10510     10508     10511     10510     10508     10512     10511     10508     10512
     10508     10512     10513     10508     10512     10514     10508     10512     10515
     10513     10512     10514     10513     10512     10515     10514     10512     10515
     10512     10515     10516     10512     10515     10517     10512     10515     10522
     10516     10515     10517     10516     10515     10522     10517     10515     10522
     10519     10518     10520     10519     10518     10521     10519     10518     10522
     10520     10518     10521     10520     10518     10522     10521     10518     10522
     10518     10521     10523     10515     10522     10518     10521     10523     10524
     10521     10523     10525     10521     10523     10526     10524     10523     10525
     10524     10523     10526     10525     10523     10526     10523     10526     10527
     10523     10526     10528     10523     10526     10534     10527     10526     10528
     10527     10526     10534     10528     10526     10534     10526     10528     10529
     10528     10529     10530     10528     10529     10531     10530     10529     10531
     10529     10531     10532     10529     10531     10533     10529     10531     10543
     10532     10531     10533     10532     10531     10543     10533     10531     10543
     10526     10534     10535     10526     10534     10536     10526     10534     10537
     10535     10534     10536     10535     10534     10537     10536     10534     10537
     10534     10537     10538     10537     10538     10539     10537     10538     10540
     10539     10538     10540     10538     10540     10541     10538     10540     10542
     10538     10540     10587     10541     10540     10542     10541     10540     10587
     10542     10540     10587     10531     10543     10544     10531     10543     10545
     10531     10543     10546     10544     10543     10545     10544     10543     10546
     10545     10543     10546     10543     10546     10547     10543     10546     10548
     10543     10546     10549     10547     10546     10548     10547     10546     10549
     10548     10546     10549     10546     10549     10550     10546     10549     10551
     10546     10549     10552     10550     10549     10551     10550     10549     10552
     10551     10549     10552     10549     10552     10553     10549     10552     10554
     10549     10552     10555     10553     10552     10554     10553     10552     10555
     10554     10552     10555     10552     10555     10556     10552     10555     10557
     10552     10555     10558     10556     10555     10557     10556     10555     10558
     10557     10555     10558     10555     10558     10559     10555     10558     10560
     10555     10558     10561     10559     10558     10560     10559     10558     10561
     10560     10558     10561     10558     10561     10562     10558     10561     10563
     10558     10561     10566     10562     10561     10563     10562     10561     10566
     10563     10561     10566     10561     10563     10564     10561     10563     10565
     10561     10563     10566     10564     10563     10565     10564     10563     10566
     10565     10563     10566     10561     10566     10563     10561     10566     10567
     10561     10566     10568     10563     10566     10567     10563     10566     10568
     10567     10566     10568     10566     10568     10569     10566     10568     10570
     10566     10568     10571     10569     10568     10570     10569     10568     10571
     10570     10568     10571     10568     10571     10572     10568     10571     10573
     10568     10571     10574     10572     10571     10573     10572     10571     10574
     10573     10571     10574     10571     10574     10575     10571     10574     10576
     10571     10574     10577     10575     10574     10576     10575     10574     10577
     10576     10574     10577     10574     10577     10578     10574     10577     10579
     10574     10577     10580     10578     10577     10579     10578     10577     10580
     10579     10577     10580     10577     10580     10581     10577     10580     10582
     10577     10580     10583     10581     10580     10582     10581     10580     10583
     10582     10580     10583     10580     10583     10584     10580     10583     10585
     10580     10583     10586     10584     10583     10585     10584     10583     10586
     10585     10583     10586     10540     10587     10588     10540     10587     10589
     10540     10587     10590     10588     10587     10589     10588     10587     10590
     10589     10587     10590     10587     10590     10591     10587     10590     10592
     10587     10590     10593     10591     10590     10592     10591     10590     10593
     10592     10590     10593     10590     10593     10594     10590     10593     10595
     10590     10593     10596     10594     10593     10595     10594     10593     10596
     10595     10593     10596     10593     10596     10597     10593     10596     10598
     10593     10596     10599     10597     10596     10598     10597     10596     10599
     10598     10596     10599     10596     10599     10600     10596     10599     10601
     10596     10599     10602     10600     10599     10601     10600     10599     10602
     10601     10599     10602     10599     10602     10603     10599     10602     10604
     10599     10602     10605     10603     10602     10604     10603     10602     10605
     10604     10602     10605     10602     10605     10606     10602     10605     10607
     10602     10605     10608     10606     10605     10607     10606     10605     10608
     10607     10605     10608     10605     10608     10609     10605     10608     10610
     10605     10608     10611     10609     10608     10610     10609     10608     10611
     10610     10608     10611     10608     10611     10612     10608     10611     10613
     10608     10611     10614     10612     10611     10613     10612     10611     10614
     10613     10611     10614     10611     10614     10615     10611     10614     10616
     10611     10614     10617     10615     10614     10616     10615     10614     10617
     10616     10614     10617     10614     10617     10618     10614     10617     10619
     10614     10617     10620     10618     10617     10619     10618     10617     10620
     10619     10617     10620     10617     10620     10621     10617     10620     10622
     10617     10620     10623     10621     10620     10622     10621     10620     10623
     10622     10620     10623     10620     10623     10624     10620     10623     10625
     10620     10623     10626     10624     10623     10625     10624     10623     10626
     10625     10623     10626     10628     10627     10629     10628     10627     10630
     10628     10627     10631     10629     10627     10630     10629     10627     10631
     10630     10627     10631     10627     10631     10632     10627     10631     10633
     10627     10631     10634     10632     10631     10633     10632     10631     10634
     10633     10631     10634     10631     10634     10635     10631     10634     10636
     10631     10634     10641     10635     10634     10636     10635     10634     10641
     10636     10634     10641     10638     10637     10639     10638     10637     10640
     10638     10637     10641     10639     10637     10640     10639     10637     10641
     10640     10637     10641     10637     10640     10642     10634     10641     10637
     10640     10642     10643     10640     10642     10644     10640     10642     10645
     10643     10642     10644     10643     10642     10645     10644     10642     10645
     10642     10645     10646     10642     10645     10647     10642     10645     10653
     10646     10645     10647     10646     10645     10653     10647     10645     10653
     10645     10647     10648     10647     10648     10649     10647     10648     10650
     10649     10648     10650     10648     10650     10651     10648     10650     10652
     10648     10650     10662     10651     10650     10652     10651     10650     10662
     10652     10650     10662     10645     10653     10654     10645     10653     10655
     10645     10653     10656     10654     10653     10655     10654     10653     10656
     10655     10653     10656     10653     10656     10657     10656     10657     10658
     10656     10657     10659     10658     10657     10659     10657     10659     10660
     10657     10659     10661     10657     10659     10706     10660     10659     10661
     10660     10659     10706     10661     10659     10706     10650     10662     10663
     10650     10662     10664     10650     10662     10665     10663     10662     10664
     10663     10662     10665     10664     10662     10665     10662     10665     10666
     10662     10665     10667     10662     10665     10668     10666     10665     10667
     10666     10665     10668     10667     10665     10668     10665     10668     10669
     10665     10668     10670     10665     10668     10671     10669     10668     10670
     10669     10668     10671     10670     10668     10671     10668     10671     10672
     10668     10671     10673     10668     10671     10674     10672     10671     10673
     10672     10671     10674     10673     10671     10674     10671     10674     10675
     10671     10674     10676     10671     10674     10677     10675     10674     10676
     10675     10674     10677     10676     10674     10677     10674     10677     10678
     10674     10677     10679     10674     10677     10680     10678     10677     10679
     10678     10677     10680     10679     10677     10680     10677     10680     10681
     10677     10680     10682     10677     10680     10685     10681     10680     10682
     10681     10680     10685     10682     10680     10685     10680     10682     10683
     10680     10682     10684     10680     10682     10685     10683     10682     10684
     10683     10682     10685     10684     10682     10685     10680     10685     10682
     10680     10685     10686     10680     10685     10687     10682     10685     10686
     10682     10685     10687     10686     10685     10687     10685     10687     10688
     10685     10687     10689     10685     10687     10690     10688     10687     10689
     10688     10687     10690     10689     10687     10690     10687     10690     10691
     10687     10690     10692     10687     10690     10693     10691     10690     10692
     10691     10690     10693     10692     10690     10693     10690     10693     10694
     10690     10693     10695     10690     10693     10696     10694     10693     10695
     10694     10693     10696     10695     10693     10696     10693     10696     10697
     10693     10696     10698     10693     10696     10699     10697     10696     10698
     10697     10696     10699     10698     10696     10699     10696     10699     10700
     10696     10699     10701     10696     10699     10702     10700     10699     10701
     10700     10699     10702     10701     10699     10702     10699     10702     10703
     10699     10702     10704     10699     10702     10705     10703     10702     10704
     10703     10702     10705     10704     10702     10705     10659     10706     10707
     10659     10706     10708     10659     10706     10709     10707     10706     10708
     10707     10706     10709     10708     10706     10709     10706     10709     10710
     10706     10709     10711     10706     10709     10712     10710     10709     10711
     10710     10709     10712     10711     10709     10712     10709     10712     10713
     10709     10712     10714     10709     10712     10715     10713     10712     10714
     10713     10712     10715     10714     10712     10715     10712     10715     10716
     10712     10715     10717     10712     10715     10718     10716     10715     10717
     10716     10715     10718     10717     10715     10718     10715     10718     10719
     10715     10718     10720     10715     10718     10721     10719     10718     10720
     10719     10718     10721     10720     10718     10721     10718     10721     10722
     10718     10721     10723     10718     10721     10724     10722     10721     10723
     10722     10721     10724     10723     10721     10724     10721     10724     10725
     10721     10724     10726     10721     10724     10727     10725     10724     10726
     10725     10724     10727     10726     10724     10727     10724     10727     10728
     10724     10727     10729     10724     10727     10730     10728     10727     10729
     10728     10727     10730     10729     10727     10730     10727     10730     10731
     10727     10730     10732     10727     10730     10733     10731     10730     10732
     10731     10730     10733     10732     10730     10733     10730     10733     10734
     10730     10733     10735     10730     10733     10736     10734     10733     10735
     10734     10733     10736     10735     10733     10736     10733     10736     10737
     10733     10736     10738     10733     10736     10739     10737     10736     10738
     10737     10736     10739     10738     10736     10739     10736     10739     10740
     10736     10739     10741     10736     10739     10742     10740     10739     10741
     10740     10739     10742     10741     10739     10742     10739     10742     10743
     10739     10742     10744     10739     10742     10745     10743     10742     10744
     10743     10742     10745     10744     10742     10745     10742     10745     10746
     10742     10745     10747     10742     10745     10748     10746     10745     10747
     10746     10745     10748     10747     10745     10748     10750     10749     10751
     10750     10749     10752     10750     10749     10753     10751     10749     10752
     10751     10749     10753     10752     10749     10753     10749     10753     10754
     10749     10753     10755     10749     10753     10756     10754     10753     10755
     10754     10753     10756     10755     10753     10756     10753     10756     10757
     10753     10756     10758     10753     10756     10763     10757     10756     10758
     10757     10756     10763     10758     10756     10763     10760     10759     10761
     10760     10759     10762     10760     10759     10763     10761     10759     10762
     10761     10759     10763     10762     10759     10763     10759     10762     10764
     10756     10763     10759     10762     10764     10765     10762     10764     10766
     10762     10764     10767     10765     10764     10766     10765     10764     10767
     10766     10764     10767     10764     10767     10768     10764     10767     10769
     10764     10767     10775     10768     10767     10769     10768     10767     10775
     10769     10767     10775     10767     10769     10770     10769     10770     10771
     10769     10770     10772     10771     10770     10772     10770     10772     10773
     10770     10772     10774     10770     10772     10784     10773     10772     10774
     10773     10772     10784     10774     10772     10784     10767     10775     10776
     10767     10775     10777     10767     10775     10778     10776     10775     10777
     10776     10775     10778     10777     10775     10778     10775     10778     10779
     10778     10779     10780     10778     10779     10781     10780     10779     10781
     10779     10781     10782     10779     10781     10783     10779     10781     10828
     10782     10781     10783     10782     10781     10828     10783     10781     10828
     10772     10784     10785     10772     10784     10786     10772     10784     10787
     10785     10784     10786     10785     10784     10787     10786     10784     10787
     10784     10787     10788     10784     10787     10789     10784     10787     10790
     10788     10787     10789     10788     10787     10790     10789     10787     10790
     10787     10790     10791     10787     10790     10792     10787     10790     10793
     10791     10790     10792     10791     10790     10793     10792     10790     10793
     10790     10793     10794     10790     10793     10795     10790     10793     10796
     10794     10793     10795     10794     10793     10796     10795     10793     10796
     10793     10796     10797     10793     10796     10798     10793     10796     10799
     10797     10796     10798     10797     10796     10799     10798     10796     10799
     10796     10799     10800     10796     10799     10801     10796     10799     10802
     10800     10799     10801     10800     10799     10802     10801     10799     10802
     10799     10802     10803     10799     10802     10804     10799     10802     10807
     10803     10802     10804     10803     10802     10807     10804     10802     10807
     10802     10804     10805     10802     10804     10806     10802     10804     10807
     10805     10804     10806     10805     10804     10807     10806     10804     10807
     10802     10807     10804     10802     10807     10808     10802     10807     10809
     10804     10807     10808     10804     10807     10809     10808     10807     10809
     10807     10809     10810     10807     10809     10811     10807     10809     10812
     10810     10809     10811     10810     10809     10812     10811     10809     10812
     10809     10812     10813     10809     10812     10814     10809     10812     10815
     10813     10812     10814     10813     10812     10815     10814     10812     10815
     10812     10815     10816     10812     10815     10817     10812     10815     10818
     10816     10815     10817     10816     10815     10818     10817     10815     10818
     10815     10818     10819     10815     10818     10820     10815     10818     10821
     10819     10818     10820     10819     10818     10821     10820     10818     10821
     10818     10821     10822     10818     10821     10823     10818     10821     10824
     10822     10821     10823     10822     10821     10824     10823     10821     10824
     10821     10824     10825     10821     10824     10826     10821     10824     10827
     10825     10824     10826     10825     10824     10827     10826     10824     10827
     10781     10828     10829     10781     10828     10830     10781     10828     10831
     10829     10828     10830     10829     10828     10831     10830     10828     10831
     10828     10831     10832     10828     10831     10833     10828     10831     10834
     10832     10831     10833     10832     10831     10834     10833     10831     10834
     10831     10834     10835     10831     10834     10836     10831     10834     10837
     10835     10834     10836     10835     10834     10837     10836     10834     10837
     10834     10837     10838     10834     10837     10839     10834     10837     10840
     10838     10837     10839     10838     10837     10840     10839     10837     10840
     10837     10840     10841     10837     10840     10842     10837     10840     10843
     10841     10840     10842     10841     10840     10843     10842     10840     10843
     10840     10843     10844     10840     10843     10845     10840     10843     10846
     10844     10843     10845     10844     10843     10846     10845     10843     10846
     10843     10846     10847     10843     10846     10848     10843     10846     10849
     10847     10846     10848     10847     10846     10849     10848     10846     10849
     10846     10849     10850     10846     10849     10851     10846     10849     10852
     10850     10849     10851     10850     10849     10852     10851     10849     10852
     10849     10852     10853     10849     10852     10854     10849     10852     10855
     10853     10852     10854     10853     10852     10855     10854     10852     10855
     10852     10855     10856     10852     10855     10857     10852     10855     10858
     10856     10855     10857     10856     10855     10858     10857     10855     10858
     10855     10858     10859     10855     10858     10860     10855     10858     10861
     10859     10858     10860     10859     10858     10861     10860     10858     10861
     10858     10861     10862     10858     10861     10863     10858     10861     10864
     10862     10861     10863     10862     10861     10864     10863     10861     10864
     10861     10864     10865     10861     10864     10866     10861     10864     10867
     10865     10864     10866     10865     10864     10867     10866     10864     10867
     10864     10867     10868     10864     10867     10869     10864     10867     10870
     10868     10867     10869     10868     10867     10870     10869     10867     10870
     10872     10871     10873     10872     10871     10874     10872     10871     10875
     10873     10871     10874     10873     10871     10875     10874     10871     10875
     10871     10875     10876     10871     10875     10877     10871     10875     10878
     10876     10875     10877     10876     10875     10878     10877     10875     10878
     10875     10878     10879     10875     10878     10880     10875     10878     10885
     10879     10878     10880     10879     10878     10885     10880     10878     10885
     10882     10881     10883     10882     10881     10884     10882     10881     10885
     10883     10881     10884     10883     10881     10885     10884     10881     10885
     10881     10884     10886     10878     10885     10881     10884     10886     10887
     10884     10886     10888     10884     10886     10889     10887     10886     10888
     10887     10886     10889     10888     10886     10889     10886     10889     10890
     10886     10889     10891     10886     10889     10897     10890     10889     10891
     10890     10889     10897     10891     10889     10897     10889     10891     10892
     10891     10892     10893     10891     10892     10894     10893     10892     10894
     10892     10894     10895     10892     10894     10896     10892     10894     10906
     10895     10894     10896     10895     10894     10906     10896     10894     10906
     10889     10897     10898     10889     10897     10899     10889     10897     10900
     10898     10897     10899     10898     10897     10900     10899     10897     10900
     10897     10900     10901     10900     10901     10902     10900     10901     10903
     10902     10901     10903     10901     10903     10904     10901     10903     10905
     10901     10903     10950     10904     10903     10905     10904     10903     10950
     10905     10903     10950     10894     10906     10907     10894     10906     10908
     10894     10906     10909     10907     10906     10908     10907     10906     10909
     10908     10906     10909     10906     10909     10910     10906     10909     10911
     10906     10909     10912     10910     10909     10911     10910     10909     10912
     10911     10909     10912     10909     10912     10913     10909     10912     10914
     10909     10912     10915     10913     10912     10914     10913     10912     10915
     10914     10912     10915     10912     10915     10916     10912     10915     10917
     10912     10915     10918     10916     10915     10917     10916     10915     10918
     10917     10915     10918     10915     10918     10919     10915     10918     10920
     10915     10918     10921     10919     10918     10920     10919     10918     10921
     10920     10918     10921     10918     10921     10922     10918     10921     10923
     10918     10921     10924     10922     10921     10923     10922     10921     10924
     10923     10921     10924     10921     10924     10925     10921     10924     10926
     10921     10924     10929     10925     10924     10926     10925     10924     10929
     10926     10924     10929     10924     10926     10927     10924     10926     10928
     10924     10926     10929     10927     10926     10928     10927     10926     10929
     10928     10926     10929     10924     10929     10926     10924     10929     10930
     10924     10929     10931     10926     10929     10930     10926     10929     10931
     10930     10929     10931     10929     10931     10932     10929     10931     10933
     10929     10931     10934     10932     10931     10933     10932     10931     10934
     10933     10931     10934     10931     10934     10935     10931     10934     10936
     10931     10934     10937     10935     10934     10936     10935     10934     10937
     10936     10934     10937     10934     10937     10938     10934     10937     10939
     10934     10937     10940     10938     10937     10939     10938     10937     10940
     10939     10937     10940     10937     10940     10941     10937     10940     10942
     10937     10940     10943     10941     10940     10942     10941     10940     10943
     10942     10940     10943     10940     10943     10944     10940     10943     10945
     10940     10943     10946     10944     10943     10945     10944     10943     10946
     10945     10943     10946     10943     10946     10947     10943     10946     10948
     10943     10946     10949     10947     10946     10948     10947     10946     10949
     10948     10946     10949     10903     10950     10951     10903     10950     10952
     10903     10950     10953     10951     10950     10952     10951     10950     10953
     10952     10950     10953     10950     10953     10954     10950     10953     10955
     10950     10953     10956     10954     10953     10955     10954     10953     10956
     10955     10953     10956     10953     10956     10957     10953     10956     10958
     10953     10956     10959     10957     10956     10958     10957     10956     10959
     10958     10956     10959     10956     10959     10960     10956     10959     10961
     10956     10959     10962     10960     10959     10961     10960     10959     10962
     10961     10959     10962     10959     10962     10963     10959     10962     10964
     10959     10962     10965     10963     10962     10964     10963     10962     10965
     10964     10962     10965     10962     10965     10966     10962     10965     10967
     10962     10965     10968     10966     10965     10967     10966     10965     10968
     10967     10965     10968     10965     10968     10969     10965     10968     10970
     10965     10968     10971     10969     10968     10970     10969     10968     10971
     10970     10968     10971     10968     10971     10972     10968     10971     10973
     10968     10971     10974     10972     10971     10973     10972     10971     10974
     10973     10971     10974     10971     10974     10975     10971     10974     10976
     10971     10974     10977     10975     10974     10976     10975     10974     10977
     10976     10974     10977     10974     10977     10978     10974     10977     10979
     10974     10977     10980     10978     10977     10979     10978     10977     10980
     10979     10977     10980     10977     10980     10981     10977     10980     10982
     10977     10980     10983     10981     10980     10982     10981     10980     10983
     10982     10980     10983     10980     10983     10984     10980     10983     10985
     10980     10983     10986     10984     10983     10985     10984     10983     10986
     10985     10983     10986     10983     10986     10987     10983     10986     10988
     10983     10986     10989     10987     10986     10988     10987     10986     10989
     10988     10986     10989     10986     10989     10990     10986     10989     10991
     10986     10989     10992     10990     10989     10991     10990     10989     10992
     10991     10989     10992     10994     10993     10995     10994     10993     10999
     10994     10993     11004     10995     10993     10999     10995     10993     11004
     10999     10993     11004     10997     10996     10998     10997     10996     10999
     10997     10996     11000     10998     10996     10999     10998     10996     11000
     10999     10996     11000     10993     10999     10996     10996     11000     11001
     11000     11001     11002     11000     11001     11003     11000     11001     11036
     11002     11001     11003     11002     11001     11036     11003     11001     11036
     10993     11004     11005     10993     11004     11006     10993     11004     11008
     11005     11004     11006     11005     11004     11008     11006     11004     11008
     11004     11006     11007     11004     11008     11009     11004     11008     11010
     11004     11008     11014     11009     11008     11010     11009     11008     11014
     11010     11008     11014     11012     11011     11013     11012     11011     11014
     11012     11011     11015     11013     11011     11014     11013     11011     11015
     11014     11011     11015     11008     11014     11011     11011     11015     11016
     11015     11016     11017     11015     11016     11018     11015     11016     11019
     11017     11016     11018     11017     11016     11019     11018     11016     11019
     11016     11019     11020     11016     11019     11021     11016     11019     11027
     11020     11019     11021     11020     11019     11027     11021     11019     11027
     11019     11021     11022     11021     11022     11023     11021     11022     11024
     11023     11022     11024     11022     11024     11025     11022     11024     11026
     11022     11024     11053     11025     11024     11026     11025     11024     11053
     11026     11024     11053     11019     11027     11028     11019     11027     11029
     11019     11027     11030     11028     11027     11029     11028     11027     11030
     11029     11027     11030     11027     11030     11031     11030     11031     11032
     11030     11031     11033     11032     11031     11033     11031     11033     11034
     11031     11033     11035     11031     11033     11100     11034     11033     11035
     11034     11033     11100     11035     11033     11100     11001     11036     11037
     11001     11036     11038     11001     11036     11044     11037     11036     11038
     11037     11036     11044     11038     11036     11044     11036     11038     11039
     11038     11039     11040     11038     11039     11041     11040     11039     11041
     11039     11041     11042     11039     11041     11043     11039     11041     11143
     11042     11041     11043     11042     11041     11143     11043     11041     11143
     11036     11044     11045     11036     11044     11046     11036     11044     11047
     11045     11044     11046     11045     11044     11047     11046     11044     11047
     11044     11047     11048     11047     11048     11049     11047     11048     11050
     11049     11048     11050     11048     11050     11051     11048     11050     11052
     11048     11050     11190     11051     11050     11052     11051     11050     11190
     11052     11050     11190     11024     11053     11054     11024     11053     11055
     11024     11053     11056     11054     11053     11055     11054     11053     11056
     11055     11053     11056     11053     11056     11057     11053     11056     11058
     11053     11056     11059     11057     11056     11058     11057     11056     11059
     11058     11056     11059     11056     11059     11060     11056     11059     11061
     11056     11059     11062     11060     11059     11061     11060     11059     11062
     11061     11059     11062     11059     11062     11063     11059     11062     11064
     11059     11062     11065     11063     11062     11064     11063     11062     11065
     11064     11062     11065     11062     11065     11066     11062     11065     11067
     11062     11065     11068     11066     11065     11067     11066     11065     11068
     11067     11065     11068     11065     11068     11069     11065     11068     11070
     11065     11068     11071     11069     11068     11070     11069     11068     11071
     11070     11068     11071     11068     11071     11072     11068     11071     11073
     11068     11071     11074     11072     11071     11073     11072     11071     11074
     11073     11071     11074     11071     11074     11075     11071     11074     11076
     11071     11074     11077     11075     11074     11076     11075     11074     11077
     11076     11074     11077     11074     11077     11078     11074     11077     11079
     11078     11077     11079     11077     11079     11080     11077     11079     11081
     11080     11079     11081     11079     11081     11082     11079     11081     11083
     11079     11081     11084     11082     11081     11083     11082     11081     11084
     11083     11081     11084     11081     11084     11085     11081     11084     11086
     11081     11084     11087     11085     11084     11086     11085     11084     11087
     11086     11084     11087     11084     11087     11088     11084     11087     11089
     11084     11087     11090     11088     11087     11089     11088     11087     11090
     11089     11087     11090     11087     11090     11091     11087     11090     11092
     11087     11090     11093     11091     11090     11092     11091     11090     11093
     11092     11090     11093     11090     11093     11094     11090     11093     11095
     11090     11093     11096     11094     11093     11095     11094     11093     11096
     11095     11093     11096     11093     11096     11097     11093     11096     11098
     11093     11096     11099     11097     11096     11098     11097     11096     11099
     11098     11096     11099     11033     11100     11101     11033     11100     11102
     11033     11100     11103     11101     11100     11102     11101     11100     11103
     11102     11100     11103     11100     11103     11104     11100     11103     11105
     11100     11103     11106     11104     11103     11105     11104     11103     11106
     11105     11103     11106     11103     11106     11107     11103     11106     11108
     11103     11106     11109     11107     11106     11108     11107     11106     11109
     11108     11106     11109     11106     11109     11110     11106     11109     11111
     11106     11109     11112     11110     11109     11111     11110     11109     11112
     11111     11109     11112     11109     11112     11113     11109     11112     11114
     11109     11112     11115     11113     11112     11114     11113     11112     11115
     11114     11112     11115     11112     11115     11116     11112     11115     11117
     11112     11115     11118     11116     11115     11117     11116     11115     11118
     11117     11115     11118     11115     11118     11119     11115     11118     11120
     11115     11118     11121     11119     11118     11120     11119     11118     11121
     11120     11118     11121     11118     11121     11122     11118     11121     11123
     11118     11121     11124     11122     11121     11123     11122     11121     11124
     11123     11121     11124     11121     11124     11125     11121     11124     11126
     11121     11124     11127     11125     11124     11126     11125     11124     11127
     11126     11124     11127     11124     11127     11128     11124     11127     11129
     11124     11127     11130     11128     11127     11129     11128     11127     11130
     11129     11127     11130     11127     11130     11131     11127     11130     11132
     11127     11130     11133     11131     11130     11132     11131     11130     11133
     11132     11130     11133     11130     11133     11134     11130     11133     11135
     11130     11133     11136     11134     11133     11135     11134     11133     11136
     11135     11133     11136     11133     11136     11137     11133     11136     11138
     11133     11136     11139     11137     11136     11138     11137     11136     11139
     11138     11136     11139     11136     11139     11140     11136     11139     11141
     11136     11139     11142     11140     11139     11141     11140     11139     11142
     11141     11139     11142     11041     11143     11144     11041     11143     11145
     11041     11143     11146     11144     11143     11145     11144     11143     11146
     11145     11143     11146     11143     11146     11147     11143     11146     11148
     11143     11146     11149     11147     11146     11148     11147     11146     11149
     11148     11146     11149     11146     11149     11150     11146     11149     11151
     11146     11149     11152     11150     11149     11151     11150     11149     11152
     11151     11149     11152     11149     11152     11153     11149     11152     11154
     11149     11152     11155     11153     11152     11154     11153     11152     11155
     11154     11152     11155     11152     11155     11156     11152     11155     11157
     11152     11155     11158     11156     11155     11157     11156     11155     11158
     11157     11155     11158     11155     11158     11159     11155     11158     11160
     11155     11158     11161     11159     11158     11160     11159     11158     11161
     11160     11158     11161     11158     11161     11162     11158     11161     11163
     11158     11161     11164     11162     11161     11163     11162     11161     11164
     11163     11161     11164     11161     11164     11165     11161     11164     11166
     11161     11164     11167     11165     11164     11166     11165     11164     11167
     11166     11164     11167     11164     11167     11168     11164     11167     11169
     11168     11167     11169     11167     11169     11170     11167     11169     11171
     11170     11169     11171     11169     11171     11172     11169     11171     11173
     11169     11171     11174     11172     11171     11173     11172     11171     11174
     11173     11171     11174     11171     11174     11175     11171     11174     11176
     11171     11174     11177     11175     11174     11176     11175     11174     11177
     11176     11174     11177     11174     11177     11178     11174     11177     11179
     11174     11177     11180     11178     11177     11179     11178     11177     11180
     11179     11177     11180     11177     11180     11181     11177     11180     11182
     11177     11180     11183     11181     11180     11182     11181     11180     11183
     11182     11180     11183     11180     11183     11184     11180     11183     11185
     11180     11183     11186     11184     11183     11185     11184     11183     11186
     11185     11183     11186     11183     11186     11187     11183     11186     11188
     11183     11186     11189     11187     11186     11188     11187     11186     11189
     11188     11186     11189     11050     11190     11191     11050     11190     11192
     11050     11190     11193     11191     11190     11192     11191     11190     11193
     11192     11190     11193     11190     11193     11194     11190     11193     11195
     11190     11193     11196     11194     11193     11195     11194     11193     11196
     11195     11193     11196     11193     11196     11197     11193     11196     11198
     11193     11196     11199     11197     11196     11198     11197     11196     11199
     11198     11196     11199     11196     11199     11200     11196     11199     11201
     11196     11199     11202     11200     11199     11201     11200     11199     11202
     11201     11199     11202     11199     11202     11203     11199     11202     11204
     11199     11202     11205     11203     11202     11204     11203     11202     11205
     11204     11202     11205     11202     11205     11206     11202     11205     11207
     11202     11205     11208     11206     11205     11207     11206     11205     11208
     11207     11205     11208     11205     11208     11209     11205     11208     11210
     11205     11208     11211     11209     11208     11210     11209     11208     11211
     11210     11208     11211     11208     11211     11212     11208     11211     11213
     11208     11211     11214     11212     11211     11213     11212     11211     11214
     11213     11211     11214     11211     11214     11215     11211     11214     11216
     11211     11214     11217     11215     11214     11216     11215     11214     11217
     11216     11214     11217     11214     11217     11218     11214     11217     11219
     11214     11217     11220     11218     11217     11219     11218     11217     11220
     11219     11217     11220     11217     11220     11221     11217     11220     11222
     11217     11220     11223     11221     11220     11222     11221     11220     11223
     11222     11220     11223     11220     11223     11224     11220     11223     11225
     11220     11223     11226     11224     11223     11225     11224     11223     11226
     11225     11223     11226     11223     11226     11227     11223     11226     11228
     11223     11226     11229     11227     11226     11228     11227     11226     11229
     11228     11226     11229     11226     11229     11230     11226     11229     11231
     11226     11229     11232     11230     11229     11231     11230     11229     11232
     11231     11229     11232     11234     11233     11235     11234     11233     11236
     11234     11233     11237     11235     11233     11236     11235     11233     11237
     11236     11233     11237     11233     11237     11238     11233     11237     11239
     11233     11237     11240     11238     11237     11239     11238     11237     11240
     11239     11237     11240     11237     11240     11241     11237     11240     11242
     11237     11240     11247     11241     11240     11242     11241     11240     11247
     11242     11240     11247     11244     11243     11245     11244     11243     11246
     11244     11243     11247     11245     11243     11246     11245     11243     11247
     11246     11243     11247     11243     11246     11248     11240     11247     11243
     11246     11248     11249     11246     11248     11250     11246     11248     11251
     11249     11248     11250     11249     11248     11251     11250     11248     11251
     11248     11251     11252     11248     11251     11253     11248     11251     11259
     11252     11251     11253     11252     11251     11259     11253     11251     11259
     11251     11253     11254     11253     11254     11255     11253     11254     11256
     11255     11254     11256     11254     11256     11257     11254     11256     11258
     11254     11256     11268     11257     11256     11258     11257     11256     11268
     11258     11256     11268     11251     11259     11260     11251     11259     11261
     11251     11259     11262     11260     11259     11261     11260     11259     11262
     11261     11259     11262     11259     11262     11263     11262     11263     11264
     11262     11263     11265     11264     11263     11265     11263     11265     11266
     11263     11265     11267     11263     11265     11312     11266     11265     11267
     11266     11265     11312     11267     11265     11312     11256     11268     11269
     11256     11268     11270     11256     11268     11271     11269     11268     11270
     11269     11268     11271     11270     11268     11271     11268     11271     11272
     11268     11271     11273     11268     11271     11274     11272     11271     11273
     11272     11271     11274     11273     11271     11274     11271     11274     11275
     11271     11274     11276     11271     11274     11277     11275     11274     11276
     11275     11274     11277     11276     11274     11277     11274     11277     11278
     11274     11277     11279     11274     11277     11280     11278     11277     11279
     11278     11277     11280     11279     11277     11280     11277     11280     11281
     11277     11280     11282     11277     11280     11283     11281     11280     11282
     11281     11280     11283     11282     11280     11283     11280     11283     11284
     11280     11283     11285     11280     11283     11286     11284     11283     11285
     11284     11283     11286     11285     11283     11286     11283     11286     11287
     11283     11286     11288     11283     11286     11291     11287     11286     11288
     11287     11286     11291     11288     11286     11291     11286     11288     11289
     11286     11288     11290     11286     11288     11291     11289     11288     11290
     11289     11288     11291     11290     11288     11291     11286     11291     11288
     11286     11291     11292     11286     11291     11293     11288     11291     11292
     11288     11291     11293     11292     11291     11293     11291     11293     11294
     11291     11293     11295     11291     11293     11296     11294     11293     11295
     11294     11293     11296     11295     11293     11296     11293     11296     11297
     11293     11296     11298     11293     11296     11299     11297     11296     11298
     11297     11296     11299     11298     11296     11299     11296     11299     11300
     11296     11299     11301     11296     11299     11302     11300     11299     11301
     11300     11299     11302     11301     11299     11302     11299     11302     11303
     11299     11302     11304     11299     11302     11305     11303     11302     11304
     11303     11302     11305     11304     11302     11305     11302     11305     11306
     11302     11305     11307     11302     11305     11308     11306     11305     11307
     11306     11305     11308     11307     11305     11308     11305     11308     11309
     11305     11308     11310     11305     11308     11311     11309     11308     11310
     11309     11308     11311     11310     11308     11311     11265     11312     11313
     11265     11312     11314     11265     11312     11315     11313     11312     11314
     11313     11312     11315     11314     11312     11315     11312     11315     11316
     11312     11315     11317     11312     11315     11318     11316     11315     11317
     11316     11315     11318     11317     11315     11318     11315     11318     11319
     11315     11318     11320     11315     11318     11321     11319     11318     11320
     11319     11318     11321     11320     11318     11321     11318     11321     11322
     11318     11321     11323     11318     11321     11324     11322     11321     11323
     11322     11321     11324     11323     11321     11324     11321     11324     11325
     11321     11324     11326     11321     11324     11327     11325     11324     11326
     11325     11324     11327     11326     11324     11327     11324     11327     11328
     11324     11327     11329     11324     11327     11330     11328     11327     11329
     11328     11327     11330     11329     11327     11330     11327     11330     11331
     11327     11330     11332     11327     11330     11333     11331     11330     11332
     11331     11330     11333     11332     11330     11333     11330     11333     11334
     11330     11333     11335     11330     11333     11336     11334     11333     11335
     11334     11333     11336     11335     11333     11336     11333     11336     11337
     11333     11336     11338     11333     11336     11339     11337     11336     11338
     11337     11336     11339     11338     11336     11339     11336     11339     11340
     11336     11339     11341     11336     11339     11342     11340     11339     11341
     11340     11339     11342     11341     11339     11342     11339     11342     11343
     11339     11342     11344     11339     11342     11345     11343     11342     11344
     11343     11342     11345     11344     11342     11345     11342     11345     11346
     11342     11345     11347     11342     11345     11348     11346     11345     11347
     11346     11345     11348     11347     11345     11348     11345     11348     11349
     11345     11348     11350     11345     11348     11351     11349     11348     11350
     11349     11348     11351     11350     11348     11351     11348     11351     11352
     11348     11351     11353     11348     11351     11354     11352     11351     11353
     11352     11351     11354     11353     11351     11354     11356     11355     11357
     11356     11355     11358     11356     11355     11359     11357     11355     11358
     11357     11355     11359     11358     11355     11359     11355     11359     11360
     11355     11359     11361     11355     11359     11362     11360     11359     11361
     11360     11359     11362     11361     11359     11362     11359     11362     11363
     11359     11362     11364     11359     11362     11369     11363     11362     11364
     11363     11362     11369     11364     11362     11369     11366     11365     11367
     11366     11365     11368     11366     11365     11369     11367     11365     11368
     11367     11365     11369     11368     11365     11369     11365     11368     11370
     11362     11369     11365     11368     11370     11371     11368     11370     11372
     11368     11370     11373     11371     11370     11372     11371     11370     11373
     11372     11370     11373     11370     11373     11374     11370     11373     11375
     11370     11373     11381     11374     11373     11375     11374     11373     11381
     11375     11373     11381     11373     11375     11376     11375     11376     11377
     11375     11376     11378     11377     11376     11378     11376     11378     11379
     11376     11378     11380     11376     11378     11390     11379     11378     11380
     11379     11378     11390     11380     11378     11390     11373     11381     11382
     11373     11381     11383     11373     11381     11384     11382     11381     11383
     11382     11381     11384     11383     11381     11384     11381     11384     11385
     11384     11385     11386     11384     11385     11387     11386     11385     11387
     11385     11387     11388     11385     11387     11389     11385     11387     11434
     11388     11387     11389     11388     11387     11434     11389     11387     11434
     11378     11390     11391     11378     11390     11392     11378     11390     11393
     11391     11390     11392     11391     11390     11393     11392     11390     11393
     11390     11393     11394     11390     11393     11395     11390     11393     11396
     11394     11393     11395     11394     11393     11396     11395     11393     11396
     11393     11396     11397     11393     11396     11398     11393     11396     11399
     11397     11396     11398     11397     11396     11399     11398     11396     11399
     11396     11399     11400     11396     11399     11401     11396     11399     11402
     11400     11399     11401     11400     11399     11402     11401     11399     11402
     11399     11402     11403     11399     11402     11404     11399     11402     11405
     11403     11402     11404     11403     11402     11405     11404     11402     11405
     11402     11405     11406     11402     11405     11407     11402     11405     11408
     11406     11405     11407     11406     11405     11408     11407     11405     11408
     11405     11408     11409     11405     11408     11410     11405     11408     11413
     11409     11408     11410     11409     11408     11413     11410     11408     11413
     11408     11410     11411     11408     11410     11412     11408     11410     11413
     11411     11410     11412     11411     11410     11413     11412     11410     11413
     11408     11413     11410     11408     11413     11414     11408     11413     11415
     11410     11413     11414     11410     11413     11415     11414     11413     11415
     11413     11415     11416     11413     11415     11417     11413     11415     11418
     11416     11415     11417     11416     11415     11418     11417     11415     11418
     11415     11418     11419     11415     11418     11420     11415     11418     11421
     11419     11418     11420     11419     11418     11421     11420     11418     11421
     11418     11421     11422     11418     11421     11423     11418     11421     11424
     11422     11421     11423     11422     11421     11424     11423     11421     11424
     11421     11424     11425     11421     11424     11426     11421     11424     11427
     11425     11424     11426     11425     11424     11427     11426     11424     11427
     11424     11427     11428     11424     11427     11429     11424     11427     11430
     11428     11427     11429     11428     11427     11430     11429     11427     11430
     11427     11430     11431     11427     11430     11432     11427     11430     11433
     11431     11430     11432     11431     11430     11433     11432     11430     11433
     11387     11434     11435     11387     11434     11436     11387     11434     11437
     11435     11434     11436     11435     11434     11437     11436     11434     11437
     11434     11437     11438     11434     11437     11439     11434     11437     11440
     11438     11437     11439     11438     11437     11440     11439     11437     11440
     11437     11440     11441     11437     11440     11442     11437     11440     11443
     11441     11440     11442     11441     11440     11443     11442     11440     11443
     11440     11443     11444     11440     11443     11445     11440     11443     11446
     11444     11443     11445     11444     11443     11446     11445     11443     11446
     11443     11446     11447     11443     11446     11448     11443     11446     11449
     11447     11446     11448     11447     11446     11449     11448     11446     11449
     11446     11449     11450     11446     11449     11451     11446     11449     11452
     11450     11449     11451     11450     11449     11452     11451     11449     11452
     11449     11452     11453     11449     11452     11454     11449     11452     11455
     11453     11452     11454     11453     11452     11455     11454     11452     11455
     11452     11455     11456     11452     11455     11457     11452     11455     11458
     11456     11455     11457     11456     11455     11458     11457     11455     11458
     11455     11458     11459     11455     11458     11460     11455     11458     11461
     11459     11458     11460     11459     11458     11461     11460     11458     11461
     11458     11461     11462     11458     11461     11463     11458     11461     11464
     11462     11461     11463     11462     11461     11464     11463     11461     11464
     11461     11464     11465     11461     11464     11466     11461     11464     11467
     11465     11464     11466     11465     11464     11467     11466     11464     11467
     11464     11467     11468     11464     11467     11469     11464     11467     11470
     11468     11467     11469     11468     11467     11470     11469     11467     11470
     11467     11470     11471     11467     11470     11472     11467     11470     11473
     11471     11470     11472     11471     11470     11473     11472     11470     11473
     11470     11473     11474     11470     11473     11475     11470     11473     11476
     11474     11473     11475     11474     11473     11476     11475     11473     11476
     11478     11477     11479     11478     11477     11480     11478     11477     11481
     11479     11477     11480     11479     11477     11481     11480     11477     11481
     11477     11481     11482     11477     11481     11483     11477     11481     11484
     11482     11481     11483     11482     11481     11484     11483     11481     11484
     11481     11484     11485     11481     11484     11486     11481     11484     11491
     11485     11484     11486     11485     11484     11491     11486     11484     11491
     11488     11487     11489     11488     11487     11490     11488     11487     11491
     11489     11487     11490     11489     11487     11491     11490     11487     11491
     11487     11490     11492     11484     11491     11487     11490     11492     11493
     11490     11492     11494     11490     11492     11495     11493     11492     11494
     11493     11492     11495     11494     11492     11495     11492     11495     11496
     11492     11495     11497     11492     11495     11503     11496     11495     11497
     11496     11495     11503     11497     11495     11503     11495     11497     11498
     11497     11498     11499     11497     11498     11500     11499     11498     11500
     11498     11500     11501     11498     11500     11502     11498     11500     11512
     11501     11500     11502     11501     11500     11512     11502     11500     11512
     11495     11503     11504     11495     11503     11505     11495     11503     11506
     11504     11503     11505     11504     11503     11506     11505     11503     11506
     11503     11506     11507     11506     11507     11508     11506     11507     11509
     11508     11507     11509     11507     11509     11510     11507     11509     11511
     11507     11509     11556     11510     11509     11511     11510     11509     11556
     11511     11509     11556     11500     11512     11513     11500     11512     11514
     11500     11512     11515     11513     11512     11514     11513     11512     11515
     11514     11512     11515     11512     11515     11516     11512     11515     11517
     11512     11515     11518     11516     11515     11517     11516     11515     11518
     11517     11515     11518     11515     11518     11519     11515     11518     11520
     11515     11518     11521     11519     11518     11520     11519     11518     11521
     11520     11518     11521     11518     11521     11522     11518     11521     11523
     11518     11521     11524     11522     11521     11523     11522     11521     11524
     11523     11521     11524     11521     11524     11525     11521     11524     11526
     11521     11524     11527     11525     11524     11526     11525     11524     11527
     11526     11524     11527     11524     11527     11528     11524     11527     11529
     11524     11527     11530     11528     11527     11529     11528     11527     11530
     11529     11527     11530     11527     11530     11531     11527     11530     11532
     11527     11530     11535     11531     11530     11532     11531     11530     11535
     11532     11530     11535     11530     11532     11533     11530     11532     11534
     11530     11532     11535     11533     11532     11534     11533     11532     11535
     11534     11532     11535     11530     11535     11532     11530     11535     11536
     11530     11535     11537     11532     11535     11536     11532     11535     11537
     11536     11535     11537     11535     11537     11538     11535     11537     11539
     11535     11537     11540     11538     11537     11539     11538     11537     11540
     11539     11537     11540     11537     11540     11541     11537     11540     11542
     11537     11540     11543     11541     11540     11542     11541     11540     11543
     11542     11540     11543     11540     11543     11544     11540     11543     11545
     11540     11543     11546     11544     11543     11545     11544     11543     11546
     11545     11543     11546     11543     11546     11547     11543     11546     11548
     11543     11546     11549     11547     11546     11548     11547     11546     11549
     11548     11546     11549     11546     11549     11550     11546     11549     11551
     11546     11549     11552     11550     11549     11551     11550     11549     11552
     11551     11549     11552     11549     11552     11553     11549     11552     11554
     11549     11552     11555     11553     11552     11554     11553     11552     11555
     11554     11552     11555     11509     11556     11557     11509     11556     11558
     11509     11556     11559     11557     11556     11558     11557     11556     11559
     11558     11556     11559     11556     11559     11560     11556     11559     11561
     11556     11559     11562     11560     11559     11561     11560     11559     11562
     11561     11559     11562     11559     11562     11563     11559     11562     11564
     11559     11562     11565     11563     11562     11564     11563     11562     11565
     11564     11562     11565     11562     11565     11566     11562     11565     11567
     11562     11565     11568     11566     11565     11567     11566     11565     11568
     11567     11565     11568     11565     11568     11569     11565     11568     11570
     11565     11568     11571     11569     11568     11570     11569     11568     11571
     11570     11568     11571     11568     11571     11572     11568     11571     11573
     11568     11571     11574     11572     11571     11573     11572     11571     11574
     11573     11571     11574     11571     11574     11575     11571     11574     11576
     11571     11574     11577     11575     11574     11576     11575     11574     11577
     11576     11574     11577     11574     11577     11578     11574     11577     11579
     11574     11577     11580     11578     11577     11579     11578     11577     11580
     11579     11577     11580     11577     11580     11581     11577     11580     11582
     11577     11580     11583     11581     11580     11582     11581     11580     11583
     11582     11580     11583     11580     11583     11584     11580     11583     11585
     11580     11583     11586     11584     11583     11585     11584     11583     11586
     11585     11583     11586     11583     11586     11587     11583     11586     11588
     11583     11586     11589     11587     11586     11588     11587     11586     11589
     11588     11586     11589     11586     11589     11590     11586     11589     11591
     11586     11589     11592     11590     11589     11591     11590     11589     11592
     11591     11589     11592     11589     11592     11593     11589     11592     11594
     11589     11592     11595     11593     11592     11594     11593     11592     11595
     11594     11592     11595     11592     11595     11596     11592     11595     11597
     11592     11595     11598     11596     11595     11597     11596     11595     11598
     11597     11595     11598     11600     11599     11601     11600     11599     11602
     11600     11599     11603     11601     11599     11602     11601     11599     11603
     11602     11599     11603     11599     11603     11604     11599     11603     11605
     11599     11603     11606     11604     11603     11605     11604     11603     11606
     11605     11603     11606     11603     11606     11607     11603     11606     11608
     11603     11606     11613     11607     11606     11608     11607     11606     11613
     11608     11606     11613     11610     11609     11611     11610     11609     11612
     11610     11609     11613     11611     11609     11612     11611     11609     11613
     11612     11609     11613     11609     11612     11614     11606     11613     11609
     11612     11614     11615     11612     11614     11616     11612     11614     11617
     11615     11614     11616     11615     11614     11617     11616     11614     11617
     11614     11617     11618     11614     11617     11619     11614     11617     11625
     11618     11617     11619     11618     11617     11625     11619     11617     11625
     11617     11619     11620     11619     11620     11621     11619     11620     11622
     11621     11620     11622     11620     11622     11623     11620     11622     11624
     11620     11622     11634     11623     11622     11624     11623     11622     11634
     11624     11622     11634     11617     11625     11626     11617     11625     11627
     11617     11625     11628     11626     11625     11627     11626     11625     11628
     11627     11625     11628     11625     11628     11629     11628     11629     11630
     11628     11629     11631     11630     11629     11631     11629     11631     11632
     11629     11631     11633     11629     11631     11681     11632     11631     11633
     11632     11631     11681     11633     11631     11681     11622     11634     11635
     11622     11634     11636     11622     11634     11637     11635     11634     11636
     11635     11634     11637     11636     11634     11637     11634     11637     11638
     11634     11637     11639     11634     11637     11640     11638     11637     11639
     11638     11637     11640     11639     11637     11640     11637     11640     11641
     11637     11640     11642     11637     11640     11643     11641     11640     11642
     11641     11640     11643     11642     11640     11643     11640     11643     11644
     11640     11643     11645     11640     11643     11646     11644     11643     11645
     11644     11643     11646     11645     11643     11646     11643     11646     11647
     11643     11646     11648     11643     11646     11649     11647     11646     11648
     11647     11646     11649     11648     11646     11649     11646     11649     11650
     11646     11649     11651     11646     11649     11652     11650     11649     11651
     11650     11649     11652     11651     11649     11652     11649     11652     11653
     11649     11652     11654     11653     11652     11654     11652     11654     11655
     11652     11654     11656     11655     11654     11656     11654     11656     11657
     11654     11656     11658     11654     11656     11659     11657     11656     11658
     11657     11656     11659     11658     11656     11659     11656     11659     11660
     11656     11659     11661     11656     11659     11662     11660     11659     11661
     11660     11659     11662     11661     11659     11662     11659     11662     11663
     11659     11662     11664     11659     11662     11665     11663     11662     11664
     11663     11662     11665     11664     11662     11665     11662     11665     11666
     11662     11665     11667     11662     11665     11668     11666     11665     11667
     11666     11665     11668     11667     11665     11668     11665     11668     11669
     11665     11668     11670     11665     11668     11671     11669     11668     11670
     11669     11668     11671     11670     11668     11671     11668     11671     11672
     11668     11671     11673     11668     11671     11674     11672     11671     11673
     11672     11671     11674     11673     11671     11674     11671     11674     11675
     11671     11674     11676     11671     11674     11677     11675     11674     11676
     11675     11674     11677     11676     11674     11677     11674     11677     11678
     11674     11677     11679     11674     11677     11680     11678     11677     11679
     11678     11677     11680     11679     11677     11680     11631     11681     11682
     11631     11681     11683     11631     11681     11684     11682     11681     11683
     11682     11681     11684     11683     11681     11684     11681     11684     11685
     11681     11684     11686     11681     11684     11687     11685     11684     11686
     11685     11684     11687     11686     11684     11687     11684     11687     11688
     11684     11687     11689     11684     11687     11690     11688     11687     11689
     11688     11687     11690     11689     11687     11690     11687     11690     11691
     11687     11690     11692     11687     11690     11693     11691     11690     11692
     11691     11690     11693     11692     11690     11693     11690     11693     11694
     11690     11693     11695     11690     11693     11696     11694     11693     11695
     11694     11693     11696     11695     11693     11696     11693     11696     11697
     11693     11696     11698     11693     11696     11699     11697     11696     11698
     11697     11696     11699     11698     11696     11699     11696     11699     11700
     11696     11699     11701     11696     11699     11702     11700     11699     11701
     11700     11699     11702     11701     11699     11702     11699     11702     11703
     11699     11702     11704     11699     11702     11705     11703     11702     11704
     11703     11702     11705     11704     11702     11705     11702     11705     11706
     11702     11705     11707     11702     11705     11708     11706     11705     11707
     11706     11705     11708     11707     11705     11708     11705     11708     11709
     11705     11708     11710     11705     11708     11711     11709     11708     11710
     11709     11708     11711     11710     11708     11711     11708     11711     11712
     11708     11711     11713     11708     11711     11714     11712     11711     11713
     11712     11711     11714     11713     11711     11714     11711     11714     11715
     11711     11714     11716     11711     11714     11717     11715     11714     11716
     11715     11714     11717     11716     11714     11717     11714     11717     11718
     11714     11717     11719     11714     11717     11720     11718     11717     11719
     11718     11717     11720     11719     11717     11720     11717     11720     11721
     11717     11720     11722     11717     11720     11723     11721     11720     11722
     11721     11720     11723     11722     11720     11723     11725     11724     11726
     11725     11724     11727     11725     11724     11728     11726     11724     11727
     11726     11724     11728     11727     11724     11728     11724     11728     11729
     11724     11728     11730     11724     11728     11731     11729     11728     11730
     11729     11728     11731     11730     11728     11731     11728     11731     11732
     11728     11731     11733     11728     11731     11738     11732     11731     11733
     11732     11731     11738     11733     11731     11738     11735     11734     11736
     11735     11734     11737     11735     11734     11738     11736     11734     11737
     11736     11734     11738     11737     11734     11738     11734     11737     11739
     11731     11738     11734     11737     11739     11740     11737     11739     11741
     11737     11739     11742     11740     11739     11741     11740     11739     11742
     11741     11739     11742     11739     11742     11743     11739     11742     11744
     11739     11742     11750     11743     11742     11744     11743     11742     11750
     11744     11742     11750     11742     11744     11745     11744     11745     11746
     11744     11745     11747     11746     11745     11747     11745     11747     11748
     11745     11747     11749     11745     11747     11759     11748     11747     11749
     11748     11747     11759     11749     11747     11759     11742     11750     11751
     11742     11750     11752     11742     11750     11753     11751     11750     11752
     11751     11750     11753     11752     11750     11753     11750     11753     11754
     11753     11754     11755     11753     11754     11756     11755     11754     11756
     11754     11756     11757     11754     11756     11758     11754     11756     11803
     11757     11756     11758     11757     11756     11803     11758     11756     11803
     11747     11759     11760     11747     11759     11761     11747     11759     11762
     11760     11759     11761     11760     11759     11762     11761     11759     11762
     11759     11762     11763     11759     11762     11764     11759     11762     11765
     11763     11762     11764     11763     11762     11765     11764     11762     11765
     11762     11765     11766     11762     11765     11767     11762     11765     11768
     11766     11765     11767     11766     11765     11768     11767     11765     11768
     11765     11768     11769     11765     11768     11770     11765     11768     11771
     11769     11768     11770     11769     11768     11771     11770     11768     11771
     11768     11771     11772     11768     11771     11773     11768     11771     11774
     11772     11771     11773     11772     11771     11774     11773     11771     11774
     11771     11774     11775     11771     11774     11776     11771     11774     11777
     11775     11774     11776     11775     11774     11777     11776     11774     11777
     11774     11777     11778     11774     11777     11779     11774     11777     11782
     11778     11777     11779     11778     11777     11782     11779     11777     11782
     11777     11779     11780     11777     11779     11781     11777     11779     11782
     11780     11779     11781     11780     11779     11782     11781     11779     11782
     11777     11782     11779     11777     11782     11783     11777     11782     11784
     11779     11782     11783     11779     11782     11784     11783     11782     11784
     11782     11784     11785     11782     11784     11786     11782     11784     11787
     11785     11784     11786     11785     11784     11787     11786     11784     11787
     11784     11787     11788     11784     11787     11789     11784     11787     11790
     11788     11787     11789     11788     11787     11790     11789     11787     11790
     11787     11790     11791     11787     11790     11792     11787     11790     11793
     11791     11790     11792     11791     11790     11793     11792     11790     11793
     11790     11793     11794     11790     11793     11795     11790     11793     11796
     11794     11793     11795     11794     11793     11796     11795     11793     11796
     11793     11796     11797     11793     11796     11798     11793     11796     11799
     11797     11796     11798     11797     11796     11799     11798     11796     11799
     11796     11799     11800     11796     11799     11801     11796     11799     11802
     11800     11799     11801     11800     11799     11802     11801     11799     11802
     11756     11803     11804     11756     11803     11805     11756     11803     11806
     11804     11803     11805     11804     11803     11806     11805     11803     11806
     11803     11806     11807     11803     11806     11808     11803     11806     11809
     11807     11806     11808     11807     11806     11809     11808     11806     11809
     11806     11809     11810     11806     11809     11811     11806     11809     11812
     11810     11809     11811     11810     11809     11812     11811     11809     11812
     11809     11812     11813     11809     11812     11814     11809     11812     11815
     11813     11812     11814     11813     11812     11815     11814     11812     11815
     11812     11815     11816     11812     11815     11817     11812     11815     11818
     11816     11815     11817     11816     11815     11818     11817     11815     11818
     11815     11818     11819     11815     11818     11820     11815     11818     11821
     11819     11818     11820     11819     11818     11821     11820     11818     11821
     11818     11821     11822     11818     11821     11823     11818     11821     11824
     11822     11821     11823     11822     11821     11824     11823     11821     11824
     11821     11824     11825     11821     11824     11826     11821     11824     11827
     11825     11824     11826     11825     11824     11827     11826     11824     11827
     11824     11827     11828     11824     11827     11829     11824     11827     11830
     11828     11827     11829     11828     11827     11830     11829     11827     11830
     11827     11830     11831     11827     11830     11832     11827     11830     11833
     11831     11830     11832     11831     11830     11833     11832     11830     11833
     11830     11833     11834     11830     11833     11835     11830     11833     11836
     11834     11833     11835     11834     11833     11836     11835     11833     11836
     11833     11836     11837     11833     11836     11838     11833     11836     11839
     11837     11836     11838     11837     11836     11839     11838     11836     11839
     11836     11839     11840     11836     11839     11841     11836     11839     11842
     11840     11839     11841     11840     11839     11842     11841     11839     11842
     11839     11842     11843     11839     11842     11844     11839     11842     11845
     11843     11842     11844     11843     11842     11845     11844     11842     11845
     11847     11846     11848     11847     11846     11849     11847     11846     11850
     11848     11846     11849     11848     11846     11850     11849     11846     11850
     11846     11850     11851     11846     11850     11852     11846     11850     11853
     11851     11850     11852     11851     11850     11853     11852     11850     11853
     11850     11853     11854     11850     11853     11855     11850     11853     11860
     11854     11853     11855     11854     11853     11860     11855     11853     11860
     11857     11856     11858     11857     11856     11859     11857     11856     11860
     11858     11856     11859     11858     11856     11860     11859     11856     11860
     11856     11859     11861     11853     11860     11856     11859     11861     11862
     11859     11861     11863     11859     11861     11864     11862     11861     11863
     11862     11861     11864     11863     11861     11864     11861     11864     11865
     11861     11864     11866     11861     11864     11872     11865     11864     11866
     11865     11864     11872     11866     11864     11872     11864     11866     11867
     11866     11867     11868     11866     11867     11869     11868     11867     11869
     11867     11869     11870     11867     11869     11871     11867     11869     11881
     11870     11869     11871     11870     11869     11881     11871     11869     11881
     11864     11872     11873     11864     11872     11874     11864     11872     11875
     11873     11872     11874     11873     11872     11875     11874     11872     11875
     11872     11875     11876     11875     11876     11877     11875     11876     11878
     11877     11876     11878     11876     11878     11879     11876     11878     11880
     11876     11878     11922     11879     11878     11880     11879     11878     11922
     11880     11878     11922     11869     11881     11882     11869     11881     11883
     11869     11881     11884     11882     11881     11883     11882     11881     11884
     11883     11881     11884     11881     11884     11885     11881     11884     11886
     11881     11884     11887     11885     11884     11886     11885     11884     11887
     11886     11884     11887     11884     11887     11888     11884     11887     11889
     11884     11887     11890     11888     11887     11889     11888     11887     11890
     11889     11887     11890     11887     11890     11891     11887     11890     11892
     11887     11890     11893     11891     11890     11892     11891     11890     11893
     11892     11890     11893     11890     11893     11894     11890     11893     11895
     11890     11893     11896     11894     11893     11895     11894     11893     11896
     11895     11893     11896     11893     11896     11897     11893     11896     11898
     11893     11896     11899     11897     11896     11898     11897     11896     11899
     11898     11896     11899     11896     11899     11900     11896     11899     11901
     11900     11899     11901     11899     11901     11902     11899     11901     11903
     11902     11901     11903     11901     11903     11904     11901     11903     11905
     11901     11903     11906     11904     11903     11905     11904     11903     11906
     11905     11903     11906     11903     11906     11907     11903     11906     11908
     11903     11906     11909     11907     11906     11908     11907     11906     11909
     11908     11906     11909     11906     11909     11910     11906     11909     11911
     11906     11909     11912     11910     11909     11911     11910     11909     11912
     11911     11909     11912     11909     11912     11913     11909     11912     11914
     11909     11912     11915     11913     11912     11914     11913     11912     11915
     11914     11912     11915     11912     11915     11916     11912     11915     11917
     11912     11915     11918     11916     11915     11917     11916     11915     11918
     11917     11915     11918     11915     11918     11919     11915     11918     11920
     11915     11918     11921     11919     11918     11920     11919     11918     11921
     11920     11918     11921     11878     11922     11923     11878     11922     11924
     11878     11922     11925     11923     11922     11924     11923     11922     11925
     11924     11922     11925     11922     11925     11926     11922     11925     11927
     11922     11925     11928     11926     11925     11927     11926     11925     11928
     11927     11925     11928     11925     11928     11929     11925     11928     11930
     11925     11928     11931     11929     11928     11930     11929     11928     11931
     11930     11928     11931     11928     11931     11932     11928     11931     11933
     11928     11931     11934     11932     11931     11933     11932     11931     11934
     11933     11931     11934     11931     11934     11935     11931     11934     11936
     11931     11934     11937     11935     11934     11936     11935     11934     11937
     11936     11934     11937     11934     11937     11938     11934     11937     11939
     11934     11937     11940     11938     11937     11939     11938     11937     11940
     11939     11937     11940     11937     11940     11941     11937     11940     11942
     11941     11940     11942     11940     11942     11943     11940     11942     11944
     11943     11942     11944     11942     11944     11945     11942     11944     11946
     11942     11944     11947     11945     11944     11946     11945     11944     11947
     11946     11944     11947     11944     11947     11948     11944     11947     11949
     11944     11947     11950     11948     11947     11949     11948     11947     11950
     11949     11947     11950     11947     11950     11951     11947     11950     11952
     11947     11950     11953     11951     11950     11952     11951     11950     11953
     11952     11950     11953     11950     11953     11954     11950     11953     11955
     11950     11953     11956     11954     11953     11955     11954     11953     11956
     11955     11953     11956     11953     11956     11957     11953     11956     11958
     11953     11956     11959     11957     11956     11958     11957     11956     11959
     11958     11956     11959     11956     11959     11960     11956     11959     11961
     11956     11959     11962     11960     11959     11961     11960     11959     11962
     11961     11959     11962     11959     11962     11963     11959     11962     11964
     11959     11962     11965     11963     11962     11964     11963     11962     11965
     11964     11962     11965     11962     11965     11966     11962     11965     11967
     11962     11965     11968     11966     11965     11967     11966     11965     11968
     11967     11965     11968     11970     11969     11971     11970     11969     11972
     11970     11969     11973     11971     11969     11972     11971     11969     11973
     11972     11969     11973     11969     11973     11974     11969     11973     11975
     11969     11973     11976     11974     11973     11975     11974     11973     11976
     11975     11973     11976     11973     11976     11977     11973     11976     11978
     11973     11976     11983     11977     11976     11978     11977     11976     11983
     11978     11976     11983     11980     11979     11981     11980     11979     11982
     11980     11979     11983     11981     11979     11982     11981     11979     11983
     11982     11979     11983     11979     11982     11984     11976     11983     11979
     11982     11984     11985     11982     11984     11986     11982     11984     11987
     11985     11984     11986     11985     11984     11987     11986     11984     11987
     11984     11987     11988     11984     11987     11989     11984     11987     11995
     11988     11987     11989     11988     11987     11995     11989     11987     11995
     11987     11989     11990     11989     11990     11991     11989     11990     11992
     11991     11990     11992     11990     11992     11993     11990     11992     11994
     11990     11992     12004     11993     11992     11994     11993     11992     12004
     11994     11992     12004     11987     11995     11996     11987     11995     11997
     11987     11995     11998     11996     11995     11997     11996     11995     11998
     11997     11995     11998     11995     11998     11999     11998     11999     12000
     11998     11999     12001     12000     11999     12001     11999     12001     12002
     11999     12001     12003     11999     12001     12048     12002     12001     12003
     12002     12001     12048     12003     12001     12048     11992     12004     12005
     11992     12004     12006     11992     12004     12007     12005     12004     12006
     12005     12004     12007     12006     12004     12007     12004     12007     12008
     12004     12007     12009     12004     12007     12010     12008     12007     12009
     12008     12007     12010     12009     12007     12010     12007     12010     12011
     12007     12010     12012     12007     12010     12013     12011     12010     12012
     12011     12010     12013     12012     12010     12013     12010     12013     12014
     12010     12013     12015     12010     12013     12016     12014     12013     12015
     12014     12013     12016     12015     12013     12016     12013     12016     12017
     12013     12016     12018     12013     12016     12019     12017     12016     12018
     12017     12016     12019     12018     12016     12019     12016     12019     12020
     12016     12019     12021     12016     12019     12022     12020     12019     12021
     12020     12019     12022     12021     12019     12022     12019     12022     12023
     12019     12022     12024     12019     12022     12027     12023     12022     12024
     12023     12022     12027     12024     12022     12027     12022     12024     12025
     12022     12024     12026     12022     12024     12027     12025     12024     12026
     12025     12024     12027     12026     12024     12027     12022     12027     12024
     12022     12027     12028     12022     12027     12029     12024     12027     12028
     12024     12027     12029     12028     12027     12029     12027     12029     12030
     12027     12029     12031     12027     12029     12032     12030     12029     12031
     12030     12029     12032     12031     12029     12032     12029     12032     12033
     12029     12032     12034     12029     12032     12035     12033     12032     12034
     12033     12032     12035     12034     12032     12035     12032     12035     12036
     12032     12035     12037     12032     12035     12038     12036     12035     12037
     12036     12035     12038     12037     12035     12038     12035     12038     12039
     12035     12038     12040     12035     12038     12041     12039     12038     12040
     12039     12038     12041     12040     12038     12041     12038     12041     12042
     12038     12041     12043     12038     12041     12044     12042     12041     12043
     12042     12041     12044     12043     12041     12044     12041     12044     12045
     12041     12044     12046     12041     12044     12047     12045     12044     12046
     12045     12044     12047     12046     12044     12047     12001     12048     12049
     12001     12048     12050     12001     12048     12051     12049     12048     12050
     12049     12048     12051     12050     12048     12051     12048     12051     12052
     12048     12051     12053     12048     12051     12054     12052     12051     12053
     12052     12051     12054     12053     12051     12054     12051     12054     12055
     12051     12054     12056     12051     12054     12057     12055     12054     12056
     12055     12054     12057     12056     12054     12057     12054     12057     12058
     12054     12057     12059     12054     12057     12060     12058     12057     12059
     12058     12057     12060     12059     12057     12060     12057     12060     12061
     12057     12060     12062     12057     12060     12063     12061     12060     12062
     12061     12060     12063     12062     12060     12063     12060     12063     12064
     12060     12063     12065     12060     12063     12066     12064     12063     12065
     12064     12063     12066     12065     12063     12066     12063     12066     12067
     12063     12066     12068     12063     12066     12069     12067     12066     12068
     12067     12066     12069     12068     12066     12069     12066     12069     12070
     12066     12069     12071     12066     12069     12072     12070     12069     12071
     12070     12069     12072     12071     12069     12072     12069     12072     12073
     12069     12072     12074     12069     12072     12075     12073     12072     12074
     12073     12072     12075     12074     12072     12075     12072     12075     12076
     12072     12075     12077     12072     12075     12078     12076     12075     12077
     12076     12075     12078     12077     12075     12078     12075     12078     12079
     12075     12078     12080     12075     12078     12081     12079     12078     12080
     12079     12078     12081     12080     12078     12081     12078     12081     12082
     12078     12081     12083     12078     12081     12084     12082     12081     12083
     12082     12081     12084     12083     12081     12084     12081     12084     12085
     12081     12084     12086     12081     12084     12087     12085     12084     12086
     12085     12084     12087     12086     12084     12087     12089     12088     12090
     12089     12088     12091     12089     12088     12093     12090     12088     12091
     12090     12088     12093     12091     12088     12093     12088     12091     12092
     12088     12093     12094     12088     12093     12095     12088     12093     12097
     12094     12093     12095     12094     12093     12097     12095     12093     12097
     12093     12095     12096     12093     12097     12098     12093     12097     12099
     12093     12097     12104     12098     12097     12099     12098     12097     12104
     12099     12097     12104     12101     12100     12102     12101     12100     12103
     12101     12100     12104     12102     12100     12103     12102     12100     12104
     12103     12100     12104     12100     12103     12105     12097     12104     12100
     12103     12105     12106     12103     12105     12107     12103     12105     12108
     12106     12105     12107     12106     12105     12108     12107     12105     12108
     12105     12108     12109     12105     12108     12110     12105     12108     12116
     12109     12108     12110     12109     12108     12116     12110     12108     12116
     12108     12110     12111     12110     12111     12112     12110     12111     12113
     12112     12111     12113     12111     12113     12114     12111     12113     12115
     12111     12113     12125     12114     12113     12115     12114     12113     12125
     12115     12113     12125     12108     12116     12117     12108     12116     12118
     12108     12116     12119     12117     12116     12118     12117     12116     12119
     12118     12116     12119     12116     12119     12120     12119     12120     12121
     12119     12120     12122     12121     12120     12122     12120     12122     12123
     12120     12122     12124     12120     12122     12166     12123     12122     12124
     12123     12122     12166     12124     12122     12166     12113     12125     12126
     12113     12125     12127     12113     12125     12128     12126     12125     12127
     12126     12125     12128     12127     12125     12128     12125     12128     12129
     12125     12128     12130     12125     12128     12131     12129     12128     12130
     12129     12128     12131     12130     12128     12131     12128     12131     12132
     12128     12131     12133     12128     12131     12134     12132     12131     12133
     12132     12131     12134     12133     12131     12134     12131     12134     12135
     12131     12134     12136     12131     12134     12137     12135     12134     12136
     12135     12134     12137     12136     12134     12137     12134     12137     12138
     12134     12137     12139     12134     12137     12140     12138     12137     12139
     12138     12137     12140     12139     12137     12140     12137     12140     12141
     12137     12140     12142     12137     12140     12143     12141     12140     12142
     12141     12140     12143     12142     12140     12143     12140     12143     12144
     12140     12143     12145     12144     12143     12145     12143     12145     12146
     12143     12145     12147     12146     12145     12147     12145     12147     12148
     12145     12147     12149     12145     12147     12150     12148     12147     12149
     12148     12147     12150     12149     12147     12150     12147     12150     12151
     12147     12150     12152     12147     12150     12153     12151     12150     12152
     12151     12150     12153     12152     12150     12153     12150     12153     12154
     12150     12153     12155     12150     12153     12156     12154     12153     12155
     12154     12153     12156     12155     12153     12156     12153     12156     12157
     12153     12156     12158     12153     12156     12159     12157     12156     12158
     12157     12156     12159     12158     12156     12159     12156     12159     12160
     12156     12159     12161     12156     12159     12162     12160     12159     12161
     12160     12159     12162     12161     12159     12162     12159     12162     12163
     12159     12162     12164     12159     12162     12165     12163     12162     12164
     12163     12162     12165     12164     12162     12165     12122     12166     12167
     12122     12166     12168     12122     12166     12169     12167     12166     12168
     12167     12166     12169     12168     12166     12169     12166     12169     12170
     12166     12169     12171     12166     12169     12172     12170     12169     12171
     12170     12169     12172     12171     12169     12172     12169     12172     12173
     12169     12172     12174     12169     12172     12175     12173     12172     12174
     12173     12172     12175     12174     12172     12175     12172     12175     12176
     12172     12175     12177     12172     12175     12178     12176     12175     12177
     12176     12175     12178     12177     12175     12178     12175     12178     12179
     12175     12178     12180     12175     12178     12181     12179     12178     12180
     12179     12178     12181     12180     12178     12181     12178     12181     12182
     12178     12181     12183     12178     12181     12184     12182     12181     12183
     12182     12181     12184     12183     12181     12184     12181     12184     12185
     12181     12184     12186     12181     12184     12187     12185     12184     12186
     12185     12184     12187     12186     12184     12187     12184     12187     12188
     12184     12187     12189     12184     12187     12190     12188     12187     12189
     12188     12187     12190     12189     12187     12190     12187     12190     12191
     12187     12190     12192     12187     12190     12193     12191     12190     12192
     12191     12190     12193     12192     12190     12193     12190     12193     12194
     12190     12193     12195     12190     12193     12196     12194     12193     12195
     12194     12193     12196     12195     12193     12196     12193     12196     12197
     12193     12196     12198     12193     12196     12199     12197     12196     12198
     12197     12196     12199     12198     12196     12199     12196     12199     12200
     12196     12199     12201     12196     12199     12202     12200     12199     12201
     12200     12199     12202     12201     12199     12202     12199     12202     12203
     12199     12202     12204     12199     12202     12205     12203     12202     12204
     12203     12202     12205     12204     12202     12205     12202     12205     12206
     12202     12205     12207     12202     12205     12208     12206     12205     12207
     12206     12205     12208     12207     12205     12208     12210     12209     12211
     12210     12209     12212     12210     12209     12213     12211     12209     12212
     12211     12209     12213     12212     12209     12213     12209     12213     12214
     12209     12213     12215     12209     12213     12216     12214     12213     12215
     12214     12213     12216     12215     12213     12216     12213     12216     12217
     12213     12216     12218     12213     12216     12223     12217     12216     12218
     12217     12216     12223     12218     12216     12223     12220     12219     12221
     12220     12219     12222     12220     12219     12223     12221     12219     12222
     12221     12219     12223     12222     12219     12223     12219     12222     12224
     12216     12223     12219     12222     12224     12225     12222     12224     12226
     12222     12224     12227     12225     12224     12226     12225     12224     12227
     12226     12224     12227     12224     12227     12228     12224     12227     12229
     12224     12227     12235     12228     12227     12229     12228     12227     12235
     12229     12227     12235     12227     12229     12230     12229     12230     12231
     12229     12230     12232     12231     12230     12232     12230     12232     12233
     12230     12232     12234     12230     12232     12244     12233     12232     12234
     12233     12232     12244     12234     12232     12244     12227     12235     12236
     12227     12235     12237     12227     12235     12238     12236     12235     12237
     12236     12235     12238     12237     12235     12238     12235     12238     12239
     12238     12239     12240     12238     12239     12241     12240     12239     12241
     12239     12241     12242     12239     12241     12243     12239     12241     12291
     12242     12241     12243     12242     12241     12291     12243     12241     12291
     12232     12244     12245     12232     12244     12246     12232     12244     12247
     12245     12244     12246     12245     12244     12247     12246     12244     12247
     12244     12247     12248     12244     12247     12249     12244     12247     12250
     12248     12247     12249     12248     12247     12250     12249     12247     12250
     12247     12250     12251     12247     12250     12252     12247     12250     12253
     12251     12250     12252     12251     12250     12253     12252     12250     12253
     12250     12253     12254     12250     12253     12255     12250     12253     12256
     12254     12253     12255     12254     12253     12256     12255     12253     12256
     12253     12256     12257     12253     12256     12258     12253     12256     12259
     12257     12256     12258     12257     12256     12259     12258     12256     12259
     12256     12259     12260     12256     12259     12261     12256     12259     12262
     12260     12259     12261     12260     12259     12262     12261     12259     12262
     12259     12262     12263     12259     12262     12264     12263     12262     12264
     12262     12264     12265     12262     12264     12266     12265     12264     12266
     12264     12266     12267     12264     12266     12268     12264     12266     12269
     12267     12266     12268     12267     12266     12269     12268     12266     12269
     12266     12269     12270     12266     12269     12271     12266     12269     12272
     12270     12269     12271     12270     12269     12272     12271     12269     12272
     12269     12272     12273     12269     12272     12274     12269     12272     12275
     12273     12272     12274     12273     12272     12275     12274     12272     12275
     12272     12275     12276     12272     12275     12277     12272     12275     12278
     12276     12275     12277     12276     12275     12278     12277     12275     12278
     12275     12278     12279     12275     12278     12280     12275     12278     12281
     12279     12278     12280     12279     12278     12281     12280     12278     12281
     12278     12281     12282     12278     12281     12283     12278     12281     12284
     12282     12281     12283     12282     12281     12284     12283     12281     12284
     12281     12284     12285     12281     12284     12286     12281     12284     12287
     12285     12284     12286     12285     12284     12287     12286     12284     12287
     12284     12287     12288     12284     12287     12289     12284     12287     12290
     12288     12287     12289     12288     12287     12290     12289     12287     12290
     12241     12291     12292     12241     12291     12293     12241     12291     12294
     12292     12291     12293     12292     12291     12294     12293     12291     12294
     12291     12294     12295     12291     12294     12296     12291     12294     12297
     12295     12294     12296     12295     12294     12297     12296     12294     12297
     12294     12297     12298     12294     12297     12299     12294     12297     12300
     12298     12297     12299     12298     12297     12300     12299     12297     12300
     12297     12300     12301     12297     12300     12302     12297     12300     12303
     12301     12300     12302     12301     12300     12303     12302     12300     12303
     12300     12303     12304     12300     12303     12305     12300     12303     12306
     12304     12303     12305     12304     12303     12306     12305     12303     12306
     12303     12306     12307     12303     12306     12308     12303     12306     12309
     12307     12306     12308     12307     12306     12309     12308     12306     12309
     12306     12309     12310     12306     12309     12311     12306     12309     12312
     12310     12309     12311     12310     12309     12312     12311     12309     12312
     12309     12312     12313     12309     12312     12314     12309     12312     12315
     12313     12312     12314     12313     12312     12315     12314     12312     12315
     12312     12315     12316     12312     12315     12317     12312     12315     12318
     12316     12315     12317     12316     12315     12318     12317     12315     12318
     12315     12318     12319     12315     12318     12320     12315     12318     12321
     12319     12318     12320     12319     12318     12321     12320     12318     12321
     12318     12321     12322     12318     12321     12323     12318     12321     12324
     12322     12321     12323     12322     12321     12324     12323     12321     12324
     12321     12324     12325     12321     12324     12326     12321     12324     12327
     12325     12324     12326     12325     12324     12327     12326     12324     12327
     12324     12327     12328     12324     12327     12329     12324     12327     12330
     12328     12327     12329     12328     12327     12330     12329     12327     12330
     12327     12330     12331     12327     12330     12332     12327     12330     12333
     12331     12330     12332     12331     12330     12333     12332     12330     12333
     12335     12334     12336     12335     12334     12337     12335     12334     12338
     12336     12334     12337     12336     12334     12338     12337     12334     12338
     12334     12338     12339     12334     12338     12340     12334     12338     12341
     12339     12338     12340     12339     12338     12341     12340     12338     12341
     12338     12341     12342     12338     12341     12343     12338     12341     12348
     12342     12341     12343     12342     12341     12348     12343     12341     12348
     12345     12344     12346     12345     12344     12347     12345     12344     12348
     12346     12344     12347     12346     12344     12348     12347     12344     12348
     12344     12347     12349     12341     12348     12344     12347     12349     12350
     12347     12349     12351     12347     12349     12352     12350     12349     12351
     12350     12349     12352     12351     12349     12352     12349     12352     12353
     12349     12352     12354     12349     12352     12360     12353     12352     12354
     12353     12352     12360     12354     12352     12360     12352     12354     12355
     12354     12355     12356     12354     12355     12357     12356     12355     12357
     12355     12357     12358     12355     12357     12359     12355     12357     12369
     12358     12357     12359     12358     12357     12369     12359     12357     12369
     12352     12360     12361     12352     12360     12362     12352     12360     12363
     12361     12360     12362     12361     12360     12363     12362     12360     12363
     12360     12363     12364     12363     12364     12365     12363     12364     12366
     12365     12364     12366     12364     12366     12367     12364     12366     12368
     12364     12366     12416     12367     12366     12368     12367     12366     12416
     12368     12366     12416     12357     12369     12370     12357     12369     12371
     12357     12369     12372     12370     12369     12371     12370     12369     12372
     12371     12369     12372     12369     12372     12373     12369     12372     12374
     12369     12372     12375     12373     12372     12374     12373     12372     12375
     12374     12372     12375     12372     12375     12376     12372     12375     12377
     12372     12375     12378     12376     12375     12377     12376     12375     12378
     12377     12375     12378     12375     12378     12379     12375     12378     12380
     12375     12378     12381     12379     12378     12380     12379     12378     12381
     12380     12378     12381     12378     12381     12382     12378     12381     12383
     12378     12381     12384     12382     12381     12383     12382     12381     12384
     12383     12381     12384     12381     12384     12385     12381     12384     12386
     12381     12384     12387     12385     12384     12386     12385     12384     12387
     12386     12384     12387     12384     12387     12388     12384     12387     12389
     12388     12387     12389     12387     12389     12390     12387     12389     12391
     12390     12389     12391     12389     12391     12392     12389     12391     12393
     12389     12391     12394     12392     12391     12393     12392     12391     12394
     12393     12391     12394     12391     12394     12395     12391     12394     12396
     12391     12394     12397     12395     12394     12396     12395     12394     12397
     12396     12394     12397     12394     12397     12398     12394     12397     12399
     12394     12397     12400     12398     12397     12399     12398     12397     12400
     12399     12397     12400     12397     12400     12401     12397     12400     12402
     12397     12400     12403     12401     12400     12402     12401     12400     12403
     12402     12400     12403     12400     12403     12404     12400     12403     12405
     12400     12403     12406     12404     12403     12405     12404     12403     12406
     12405     12403     12406     12403     12406     12407     12403     12406     12408
     12403     12406     12409     12407     12406     12408     12407     12406     12409
     12408     12406     12409     12406     12409     12410     12406     12409     12411
     12406     12409     12412     12410     12409     12411     12410     12409     12412
     12411     12409     12412     12409     12412     12413     12409     12412     12414
     12409     12412     12415     12413     12412     12414     12413     12412     12415
     12414     12412     12415     12366     12416     12417     12366     12416     12418
     12366     12416     12419     12417     12416     12418     12417     12416     12419
     12418     12416     12419     12416     12419     12420     12416     12419     12421
     12416     12419     12422     12420     12419     12421     12420     12419     12422
     12421     12419     12422     12419     12422     12423     12419     12422     12424
     12419     12422     12425     12423     12422     12424     12423     12422     12425
     12424     12422     12425     12422     12425     12426     12422     12425     12427
     12422     12425     12428     12426     12425     12427     12426     12425     12428
     12427     12425     12428     12425     12428     12429     12425     12428     12430
     12425     12428     12431     12429     12428     12430     12429     12428     12431
     12430     12428     12431     12428     12431     12432     12428     12431     12433
     12428     12431     12434     12432     12431     12433     12432     12431     12434
     12433     12431     12434     12431     12434     12435     12431     12434     12436
     12431     12434     12437     12435     12434     12436     12435     12434     12437
     12436     12434     12437     12434     12437     12438     12434     12437     12439
     12434     12437     12440     12438     12437     12439     12438     12437     12440
     12439     12437     12440     12437     12440     12441     12437     12440     12442
     12437     12440     12443     12441     12440     12442     12441     12440     12443
     12442     12440     12443     12440     12443     12444     12440     12443     12445
     12440     12443     12446     12444     12443     12445     12444     12443     12446
     12445     12443     12446     12443     12446     12447     12443     12446     12448
     12443     12446     12449     12447     12446     12448     12447     12446     12449
     12448     12446     12449     12446     12449     12450     12446     12449     12451
     12446     12449     12452     12450     12449     12451     12450     12449     12452
     12451     12449     12452     12449     12452     12453     12449     12452     12454
     12449     12452     12455     12453     12452     12454     12453     12452     12455
     12454     12452     12455     12452     12455     12456     12452     12455     12457
     12452     12455     12458     12456     12455     12457     12456     12455     12458
     12457     12455     12458     12460     12459     12461     12460     12459     12462
     12460     12459     12464     12461     12459     12462     12461     12459     12464
     12462     12459     12464     12459     12462     12463     12459     12464     12465
     12459     12464     12466     12459     12464     12468     12465     12464     12466
     12465     12464     12468     12466     12464     12468     12464     12466     12467
     12464     12468     12469     12464     12468     12470     12464     12468     12475
     12469     12468     12470     12469     12468     12475     12470     12468     12475
     12472     12471     12473     12472     12471     12474     12472     12471     12475
     12473     12471     12474     12473     12471     12475     12474     12471     12475
     12471     12474     12476     12468     12475     12471     12474     12476     12477
     12474     12476     12478     12474     12476     12479     12477     12476     12478
     12477     12476     12479     12478     12476     12479     12476     12479     12480
     12476     12479     12481     12476     12479     12487     12480     12479     12481
     12480     12479     12487     12481     12479     12487     12479     12481     12482
     12481     12482     12483     12481     12482     12484     12483     12482     12484
     12482     12484     12485     12482     12484     12486     12482     12484     12496
     12485     12484     12486     12485     12484     12496     12486     12484     12496
     12479     12487     12488     12479     12487     12489     12479     12487     12490
     12488     12487     12489     12488     12487     12490     12489     12487     12490
     12487     12490     12491     12490     12491     12492     12490     12491     12493
     12492     12491     12493     12491     12493     12494     12491     12493     12495
     12491     12493     12540     12494     12493     12495     12494     12493     12540
     12495     12493     12540     12484     12496     12497     12484     12496     12498
     12484     12496     12499     12497     12496     12498     12497     12496     12499
     12498     12496     12499     12496     12499     12500     12496     12499     12501
     12496     12499     12502     12500     12499     12501     12500     12499     12502
     12501     12499     12502     12499     12502     12503     12499     12502     12504
     12499     12502     12505     12503     12502     12504     12503     12502     12505
     12504     12502     12505     12502     12505     12506     12502     12505     12507
     12502     12505     12508     12506     12505     12507     12506     12505     12508
     12507     12505     12508     12505     12508     12509     12505     12508     12510
     12505     12508     12511     12509     12508     12510     12509     12508     12511
     12510     12508     12511     12508     12511     12512     12508     12511     12513
     12508     12511     12514     12512     12511     12513     12512     12511     12514
     12513     12511     12514     12511     12514     12515     12511     12514     12516
     12511     12514     12519     12515     12514     12516     12515     12514     12519
     12516     12514     12519     12514     12516     12517     12514     12516     12518
     12514     12516     12519     12517     12516     12518     12517     12516     12519
     12518     12516     12519     12514     12519     12516     12514     12519     12520
     12514     12519     12521     12516     12519     12520     12516     12519     12521
     12520     12519     12521     12519     12521     12522     12519     12521     12523
     12519     12521     12524     12522     12521     12523     12522     12521     12524
     12523     12521     12524     12521     12524     12525     12521     12524     12526
     12521     12524     12527     12525     12524     12526     12525     12524     12527
     12526     12524     12527     12524     12527     12528     12524     12527     12529
     12524     12527     12530     12528     12527     12529     12528     12527     12530
     12529     12527     12530     12527     12530     12531     12527     12530     12532
     12527     12530     12533     12531     12530     12532     12531     12530     12533
     12532     12530     12533     12530     12533     12534     12530     12533     12535
     12530     12533     12536     12534     12533     12535     12534     12533     12536
     12535     12533     12536     12533     12536     12537     12533     12536     12538
     12533     12536     12539     12537     12536     12538     12537     12536     12539
     12538     12536     12539     12493     12540     12541     12493     12540     12542
     12493     12540     12543     12541     12540     12542     12541     12540     12543
     12542     12540     12543     12540     12543     12544     12540     12543     12545
     12540     12543     12546     12544     12543     12545     12544     12543     12546
     12545     12543     12546     12543     12546     12547     12543     12546     12548
     12543     12546     12549     12547     12546     12548     12547     12546     12549
     12548     12546     12549     12546     12549     12550     12546     12549     12551
     12546     12549     12552     12550     12549     12551     12550     12549     12552
     12551     12549     12552     12549     12552     12553     12549     12552     12554
     12549     12552     12555     12553     12552     12554     12553     12552     12555
     12554     12552     12555     12552     12555     12556     12552     12555     12557
     12552     12555     12558     12556     12555     12557     12556     12555     12558
     12557     12555     12558     12555     12558     12559     12555     12558     12560
     12555     12558     12561     12559     12558     12560     12559     12558     12561
     12560     12558     12561     12558     12561     12562     12558     12561     12563
     12558     12561     12564     12562     12561     12563     12562     12561     12564
     12563     12561     12564     12561     12564     12565     12561     12564     12566
     12561     12564     12567     12565     12564     12566     12565     12564     12567
     12566     12564     12567     12564     12567     12568     12564     12567     12569
     12564     12567     12570     12568     12567     12569     12568     12567     12570
     12569     12567     12570     12567     12570     12571     12567     12570     12572
     12567     12570     12573     12571     12570     12572     12571     12570     12573
     12572     12570     12573     12570     12573     12574     12570     12573     12575
     12570     12573     12576     12574     12573     12575     12574     12573     12576
     12575     12573     12576     12573     12576     12577     12573     12576     12578
     12573     12576     12579     12577     12576     12578     12577     12576     12579
     12578     12576     12579     12576     12579     12580     12576     12579     12581
     12576     12579     12582     12580     12579     12581     12580     12579     12582
     12581     12579     12582     12584     12583     12585     12584     12583     12586
     12584     12583     12587     12585     12583     12586     12585     12583     12587
     12586     12583     12587     12583     12587     12588     12583     12587     12589
     12583     12587     12590     12588     12587     12589     12588     12587     12590
     12589     12587     12590     12587     12590     12591     12587     12590     12592
     12587     12590     12597     12591     12590     12592     12591     12590     12597
     12592     12590     12597     12594     12593     12595     12594     12593     12596
     12594     12593     12597     12595     12593     12596     12595     12593     12597
     12596     12593     12597     12593     12596     12598     12590     12597     12593
     12596     12598     12599     12596     12598     12600     12596     12598     12601
     12599     12598     12600     12599     12598     12601     12600     12598     12601
     12598     12601     12602     12598     12601     12603     12598     12601     12609
     12602     12601     12603     12602     12601     12609     12603     12601     12609
     12601     12603     12604     12603     12604     12605     12603     12604     12606
     12605     12604     12606     12604     12606     12607     12604     12606     12608
     12604     12606     12618     12607     12606     12608     12607     12606     12618
     12608     12606     12618     12601     12609     12610     12601     12609     12611
     12601     12609     12612     12610     12609     12611     12610     12609     12612
     12611     12609     12612     12609     12612     12613     12612     12613     12614
     12612     12613     12615     12614     12613     12615     12613     12615     12616
     12613     12615     12617     12613     12615     12665     12616     12615     12617
     12616     12615     12665     12617     12615     12665     12606     12618     12619
     12606     12618     12620     12606     12618     12621     12619     12618     12620
     12619     12618     12621     12620     12618     12621     12618     12621     12622
     12618     12621     12623     12618     12621     12624     12622     12621     12623
     12622     12621     12624     12623     12621     12624     12621     12624     12625
     12621     12624     12626     12621     12624     12627     12625     12624     12626
     12625     12624     12627     12626     12624     12627     12624     12627     12628
     12624     12627     12629     12624     12627     12630     12628     12627     12629
     12628     12627     12630     12629     12627     12630     12627     12630     12631
     12627     12630     12632     12627     12630     12633     12631     12630     12632
     12631     12630     12633     12632     12630     12633     12630     12633     12634
     12630     12633     12635     12630     12633     12636     12634     12633     12635
     12634     12633     12636     12635     12633     12636     12633     12636     12637
     12633     12636     12638     12637     12636     12638     12636     12638     12639
     12636     12638     12640     12639     12638     12640     12638     12640     12641
     12638     12640     12642     12638     12640     12643     12641     12640     12642
     12641     12640     12643     12642     12640     12643     12640     12643     12644
     12640     12643     12645     12640     12643     12646     12644     12643     12645
     12644     12643     12646     12645     12643     12646     12643     12646     12647
     12643     12646     12648     12643     12646     12649     12647     12646     12648
     12647     12646     12649     12648     12646     12649     12646     12649     12650
     12646     12649     12651     12646     12649     12652     12650     12649     12651
     12650     12649     12652     12651     12649     12652     12649     12652     12653
     12649     12652     12654     12649     12652     12655     12653     12652     12654
     12653     12652     12655     12654     12652     12655     12652     12655     12656
     12652     12655     12657     12652     12655     12658     12656     12655     12657
     12656     12655     12658     12657     12655     12658     12655     12658     12659
     12655     12658     12660     12655     12658     12661     12659     12658     12660
     12659     12658     12661     12660     12658     12661     12658     12661     12662
     12658     12661     12663     12658     12661     12664     12662     12661     12663
     12662     12661     12664     12663     12661     12664     12615     12665     12666
     12615     12665     12667     12615     12665     12668     12666     12665     12667
     12666     12665     12668     12667     12665     12668     12665     12668     12669
     12665     12668     12670     12665     12668     12671     12669     12668     12670
     12669     12668     12671     12670     12668     12671     12668     12671     12672
     12668     12671     12673     12668     12671     12674     12672     12671     12673
     12672     12671     12674     12673     12671     12674     12671     12674     12675
     12671     12674     12676     12671     12674     12677     12675     12674     12676
     12675     12674     12677     12676     12674     12677     12674     12677     12678
     12674     12677     12679     12674     12677     12680     12678     12677     12679
     12678     12677     12680     12679     12677     12680     12677     12680     12681
     12677     12680     12682     12677     12680     12683     12681     12680     12682
     12681     12680     12683     12682     12680     12683     12680     12683     12684
     12680     12683     12685     12680     12683     12686     12684     12683     12685
     12684     12683     12686     12685     12683     12686     12683     12686     12687
     12683     12686     12688     12683     12686     12689     12687     12686     12688
     12687     12686     12689     12688     12686     12689     12686     12689     12690
     12686     12689     12691     12686     12689     12692     12690     12689     12691
     12690     12689     12692     12691     12689     12692     12689     12692     12693
     12689     12692     12694     12689     12692     12695     12693     12692     12694
     12693     12692     12695     12694     12692     12695     12692     12695     12696
     12692     12695     12697     12692     12695     12698     12696     12695     12697
     12696     12695     12698     12697     12695     12698     12695     12698     12699
     12695     12698     12700     12695     12698     12701     12699     12698     12700
     12699     12698     12701     12700     12698     12701     12698     12701     12702
     12698     12701     12703     12698     12701     12704     12702     12701     12703
     12702     12701     12704     12703     12701     12704     12701     12704     12705
     12701     12704     12706     12701     12704     12707     12705     12704     12706
     12705     12704     12707     12706     12704     12707     12709     12708     12710
     12709     12708     12711     12709     12708     12712     12710     12708     12711
     12710     12708     12712     12711     12708     12712     12708     12712     12713
     12708     12712     12714     12708     12712     12715     12713     12712     12714
     12713     12712     12715     12714     12712     12715     12712     12715     12716
     12712     12715     12717     12712     12715     12722     12716     12715     12717
     12716     12715     12722     12717     12715     12722     12719     12718     12720
     12719     12718     12721     12719     12718     12722     12720     12718     12721
     12720     12718     12722     12721     12718     12722     12718     12721     12723
     12715     12722     12718     12721     12723     12724     12721     12723     12725
     12721     12723     12726     12724     12723     12725     12724     12723     12726
     12725     12723     12726     12723     12726     12727     12723     12726     12728
     12723     12726     12734     12727     12726     12728     12727     12726     12734
     12728     12726     12734     12726     12728     12729     12728     12729     12730
     12728     12729     12731     12730     12729     12731     12729     12731     12732
     12729     12731     12733     12729     12731     12743     12732     12731     12733
     12732     12731     12743     12733     12731     12743     12726     12734     12735
     12726     12734     12736     12726     12734     12737     12735     12734     12736
     12735     12734     12737     12736     12734     12737     12734     12737     12738
     12737     12738     12739     12737     12738     12740     12739     12738     12740
     12738     12740     12741     12738     12740     12742     12738     12740     12787
     12741     12740     12742     12741     12740     12787     12742     12740     12787
     12731     12743     12744     12731     12743     12745     12731     12743     12746
     12744     12743     12745     12744     12743     12746     12745     12743     12746
     12743     12746     12747     12743     12746     12748     12743     12746     12749
     12747     12746     12748     12747     12746     12749     12748     12746     12749
     12746     12749     12750     12746     12749     12751     12746     12749     12752
     12750     12749     12751     12750     12749     12752     12751     12749     12752
     12749     12752     12753     12749     12752     12754     12749     12752     12755
     12753     12752     12754     12753     12752     12755     12754     12752     12755
     12752     12755     12756     12752     12755     12757     12752     12755     12758
     12756     12755     12757     12756     12755     12758     12757     12755     12758
     12755     12758     12759     12755     12758     12760     12755     12758     12761
     12759     12758     12760     12759     12758     12761     12760     12758     12761
     12758     12761     12762     12758     12761     12763     12758     12761     12766
     12762     12761     12763     12762     12761     12766     12763     12761     12766
     12761     12763     12764     12761     12763     12765     12761     12763     12766
     12764     12763     12765     12764     12763     12766     12765     12763     12766
     12761     12766     12763     12761     12766     12767     12761     12766     12768
     12763     12766     12767     12763     12766     12768     12767     12766     12768
     12766     12768     12769     12766     12768     12770     12766     12768     12771
     12769     12768     12770     12769     12768     12771     12770     12768     12771
     12768     12771     12772     12768     12771     12773     12768     12771     12774
     12772     12771     12773     12772     12771     12774     12773     12771     12774
     12771     12774     12775     12771     12774     12776     12771     12774     12777
     12775     12774     12776     12775     12774     12777     12776     12774     12777
     12774     12777     12778     12774     12777     12779     12774     12777     12780
     12778     12777     12779     12778     12777     12780     12779     12777     12780
     12777     12780     12781     12777     12780     12782     12777     12780     12783
     12781     12780     12782     12781     12780     12783     12782     12780     12783
     12780     12783     12784     12780     12783     12785     12780     12783     12786
     12784     12783     12785     12784     12783     12786     12785     12783     12786
     12740     12787     12788     12740     12787     12789     12740     12787     12790
     12788     12787     12789     12788     12787     12790     12789     12787     12790
     12787     12790     12791     12787     12790     12792     12787     12790     12793
     12791     12790     12792     12791     12790     12793     12792     12790     12793
     12790     12793     12794     12790     12793     12795     12790     12793     12796
     12794     12793     12795     12794     12793     12796     12795     12793     12796
     12793     12796     12797     12793     12796     12798     12793     12796     12799
     12797     12796     12798     12797     12796     12799     12798     12796     12799
     12796     12799     12800     12796     12799     12801     12796     12799     12802
     12800     12799     12801     12800     12799     12802     12801     12799     12802
     12799     12802     12803     12799     12802     12804     12799     12802     12805
     12803     12802     12804     12803     12802     12805     12804     12802     12805
     12802     12805     12806     12802     12805     12807     12802     12805     12808
     12806     12805     12807     12806     12805     12808     12807     12805     12808
     12805     12808     12809     12805     12808     12810     12805     12808     12811
     12809     12808     12810     12809     12808     12811     12810     12808     12811
     12808     12811     12812     12808     12811     12813     12808     12811     12814
     12812     12811     12813     12812     12811     12814     12813     12811     12814
     12811     12814     12815     12811     12814     12816     12811     12814     12817
     12815     12814     12816     12815     12814     12817     12816     12814     12817
     12814     12817     12818     12814     12817     12819     12814     12817     12820
     12818     12817     12819     12818     12817     12820     12819     12817     12820
     12817     12820     12821     12817     12820     12822     12817     12820     12823
     12821     12820     12822     12821     12820     12823     12822     12820     12823
     12820     12823     12824     12820     12823     12825     12820     12823     12826
     12824     12823     12825     12824     12823     12826     12825     12823     12826
     12823     12826     12827     12823     12826     12828     12823     12826     12829
     12827     12826     12828     12827     12826     12829     12828     12826     12829
     12831     12830     12832     12831     12830     12833     12831     12830     12834
     12832     12830     12833     12832     12830     12834     12833     12830     12834
     12830     12834     12835     12830     12834     12836     12830     12834     12837
     12835     12834     12836     12835     12834     12837     12836     12834     12837
     12834     12837     12838     12834     12837     12839     12834     12837     12844
     12838     12837     12839     12838     12837     12844     12839     12837     12844
     12841     12840     12842     12841     12840     12843     12841     12840     12844
     12842     12840     12843     12842     12840     12844     12843     12840     12844
     12840     12843     12845     12837     12844     12840     12843     12845     12846
     12843     12845     12847     12843     12845     12848     12846     12845     12847
     12846     12845     12848     12847     12845     12848     12845     12848     12849
     12845     12848     12850     12845     12848     12856     12849     12848     12850
     12849     12848     12856     12850     12848     12856     12848     12850     12851
     12850     12851     12852     12850     12851     12853     12852     12851     12853
     12851     12853     12854     12851     12853     12855     12851     12853     12865
     12854     12853     12855     12854     12853     12865     12855     12853     12865
     12848     12856     12857     12848     12856     12858     12848     12856     12859
     12857     12856     12858     12857     12856     12859     12858     12856     12859
     12856     12859     12860     12859     12860     12861     12859     12860     12862
     12861     12860     12862     12860     12862     12863     12860     12862     12864
     12860     12862     12909     12863     12862     12864     12863     12862     12909
     12864     12862     12909     12853     12865     12866     12853     12865     12867
     12853     12865     12868     12866     12865     12867     12866     12865     12868
     12867     12865     12868     12865     12868     12869     12865     12868     12870
     12865     12868     12871     12869     12868     12870     12869     12868     12871
     12870     12868     12871     12868     12871     12872     12868     12871     12873
     12868     12871     12874     12872     12871     12873     12872     12871     12874
     12873     12871     12874     12871     12874     12875     12871     12874     12876
     12871     12874     12877     12875     12874     12876     12875     12874     12877
     12876     12874     12877     12874     12877     12878     12874     12877     12879
     12874     12877     12880     12878     12877     12879     12878     12877     12880
     12879     12877     12880     12877     12880     12881     12877     12880     12882
     12877     12880     12883     12881     12880     12882     12881     12880     12883
     12882     12880     12883     12880     12883     12884     12880     12883     12885
     12880     12883     12888     12884     12883     12885     12884     12883     12888
     12885     12883     12888     12883     12885     12886     12883     12885     12887
     12883     12885     12888     12886     12885     12887     12886     12885     12888
     12887     12885     12888     12883     12888     12885     12883     12888     12889
     12883     12888     12890     12885     12888     12889     12885     12888     12890
     12889     12888     12890     12888     12890     12891     12888     12890     12892
     12888     12890     12893     12891     12890     12892     12891     12890     12893
     12892     12890     12893     12890     12893     12894     12890     12893     12895
     12890     12893     12896     12894     12893     12895     12894     12893     12896
     12895     12893     12896     12893     12896     12897     12893     12896     12898
     12893     12896     12899     12897     12896     12898     12897     12896     12899
     12898     12896     12899     12896     12899     12900     12896     12899     12901
     12896     12899     12902     12900     12899     12901     12900     12899     12902
     12901     12899     12902     12899     12902     12903     12899     12902     12904
     12899     12902     12905     12903     12902     12904     12903     12902     12905
     12904     12902     12905     12902     12905     12906     12902     12905     12907
     12902     12905     12908     12906     12905     12907     12906     12905     12908
     12907     12905     12908     12862     12909     12910     12862     12909     12911
     12862     12909     12912     12910     12909     12911     12910     12909     12912
     12911     12909     12912     12909     12912     12913     12909     12912     12914
     12909     12912     12915     12913     12912     12914     12913     12912     12915
     12914     12912     12915     12912     12915     12916     12912     12915     12917
     12912     12915     12918     12916     12915     12917     12916     12915     12918
     12917     12915     12918     12915     12918     12919     12915     12918     12920
     12915     12918     12921     12919     12918     12920     12919     12918     12921
     12920     12918     12921     12918     12921     12922     12918     12921     12923
     12918     12921     12924     12922     12921     12923     12922     12921     12924
     12923     12921     12924     12921     12924     12925     12921     12924     12926
     12921     12924     12927     12925     12924     12926     12925     12924     12927
     12926     12924     12927     12924     12927     12928     12924     12927     12929
     12924     12927     12930     12928     12927     12929     12928     12927     12930
     12929     12927     12930     12927     12930     12931     12927     12930     12932
     12927     12930     12933     12931     12930     12932     12931     12930     12933
     12932     12930     12933     12930     12933     12934     12930     12933     12935
     12930     12933     12936     12934     12933     12935     12934     12933     12936
     12935     12933     12936     12933     12936     12937     12933     12936     12938
     12933     12936     12939     12937     12936     12938     12937     12936     12939
     12938     12936     12939     12936     12939     12940     12936     12939     12941
     12936     12939     12942     12940     12939     12941     12940     12939     12942
     12941     12939     12942     12939     12942     12943     12939     12942     12944
     12939     12942     12945     12943     12942     12944     12943     12942     12945
     12944     12942     12945     12942     12945     12946     12942     12945     12947
     12942     12945     12948     12946     12945     12947     12946     12945     12948
     12947     12945     12948     12945     12948     12949     12945     12948     12950
     12945     12948     12951     12949     12948     12950     12949     12948     12951
     12950     12948     12951     12953     12952     12954     12953     12952     12955
     12953     12952     12956     12954     12952     12955     12954     12952     12956
     12955     12952     12956     12952     12956     12957     12952     12956     12958
     12952     12956     12959     12957     12956     12958     12957     12956     12959
     12958     12956     12959     12956     12959     12960     12956     12959     12961
     12956     12959     12966     12960     12959     12961     12960     12959     12966
     12961     12959     12966     12963     12962     12964     12963     12962     12965
     12963     12962     12966     12964     12962     12965     12964     12962     12966
     12965     12962     12966     12962     12965     12967     12959     12966     12962
     12965     12967     12968     12965     12967     12969     12965     12967     12970
     12968     12967     12969     12968     12967     12970     12969     12967     12970
     12967     12970     12971     12967     12970     12972     12967     12970     12978
     12971     12970     12972     12971     12970     12978     12972     12970     12978
     12970     12972     12973     12972     12973     12974     12972     12973     12975
     12974     12973     12975     12973     12975     12976     12973     12975     12977
     12973     12975     12987     12976     12975     12977     12976     12975     12987
     12977     12975     12987     12970     12978     12979     12970     12978     12980
     12970     12978     12981     12979     12978     12980     12979     12978     12981
     12980     12978     12981     12978     12981     12982     12981     12982     12983
     12981     12982     12984     12983     12982     12984     12982     12984     12985
     12982     12984     12986     12982     12984     13031     12985     12984     12986
     12985     12984     13031     12986     12984     13031     12975     12987     12988
     12975     12987     12989     12975     12987     12990     12988     12987     12989
     12988     12987     12990     12989     12987     12990     12987     12990     12991
     12987     12990     12992     12987     12990     12993     12991     12990     12992
     12991     12990     12993     12992     12990     12993     12990     12993     12994
     12990     12993     12995     12990     12993     12996     12994     12993     12995
     12994     12993     12996     12995     12993     12996     12993     12996     12997
     12993     12996     12998     12993     12996     12999     12997     12996     12998
     12997     12996     12999     12998     12996     12999     12996     12999     13000
     12996     12999     13001     12996     12999     13002     13000     12999     13001
     13000     12999     13002     13001     12999     13002     12999     13002     13003
     12999     13002     13004     12999     13002     13005     13003     13002     13004
     13003     13002     13005     13004     13002     13005     13002     13005     13006
     13002     13005     13007     13002     13005     13010     13006     13005     13007
     13006     13005     13010     13007     13005     13010     13005     13007     13008
     13005     13007     13009     13005     13007     13010     13008     13007     13009
     13008     13007     13010     13009     13007     13010     13005     13010     13007
     13005     13010     13011     13005     13010     13012     13007     13010     13011
     13007     13010     13012     13011     13010     13012     13010     13012     13013
     13010     13012     13014     13010     13012     13015     13013     13012     13014
     13013     13012     13015     13014     13012     13015     13012     13015     13016
     13012     13015     13017     13012     13015     13018     13016     13015     13017
     13016     13015     13018     13017     13015     13018     13015     13018     13019
     13015     13018     13020     13015     13018     13021     13019     13018     13020
     13019     13018     13021     13020     13018     13021     13018     13021     13022
     13018     13021     13023     13018     13021     13024     13022     13021     13023
     13022     13021     13024     13023     13021     13024     13021     13024     13025
     13021     13024     13026     13021     13024     13027     13025     13024     13026
     13025     13024     13027     13026     13024     13027     13024     13027     13028
     13024     13027     13029     13024     13027     13030     13028     13027     13029
     13028     13027     13030     13029     13027     13030     12984     13031     13032
     12984     13031     13033     12984     13031     13034     13032     13031     13033
     13032     13031     13034     13033     13031     13034     13031     13034     13035
     13031     13034     13036     13031     13034     13037     13035     13034     13036
     13035     13034     13037     13036     13034     13037     13034     13037     13038
     13034     13037     13039     13034     13037     13040     13038     13037     13039
     13038     13037     13040     13039     13037     13040     13037     13040     13041
     13037     13040     13042     13037     13040     13043     13041     13040     13042
     13041     13040     13043     13042     13040     13043     13040     13043     13044
     13040     13043     13045     13040     13043     13046     13044     13043     13045
     13044     13043     13046     13045     13043     13046     13043     13046     13047
     13043     13046     13048     13043     13046     13049     13047     13046     13048
     13047     13046     13049     13048     13046     13049     13046     13049     13050
     13046     13049     13051     13046     13049     13052     13050     13049     13051
     13050     13049     13052     13051     13049     13052     13049     13052     13053
     13049     13052     13054     13049     13052     13055     13053     13052     13054
     13053     13052     13055     13054     13052     13055     13052     13055     13056
     13052     13055     13057     13052     13055     13058     13056     13055     13057
     13056     13055     13058     13057     13055     13058     13055     13058     13059
     13055     13058     13060     13055     13058     13061     13059     13058     13060
     13059     13058     13061     13060     13058     13061     13058     13061     13062
     13058     13061     13063     13058     13061     13064     13062     13061     13063
     13062     13061     13064     13063     13061     13064     13061     13064     13065
     13061     13064     13066     13061     13064     13067     13065     13064     13066
     13065     13064     13067     13066     13064     13067     13064     13067     13068
     13064     13067     13069     13064     13067     13070     13068     13067     13069
     13068     13067     13070     13069     13067     13070     13072     13071     13073
     13072     13071     13074     13072     13071     13075     13073     13071     13074
     13073     13071     13075     13074     13071     13075     13071     13075     13076
     13071     13075     13077     13071     13075     13078     13076     13075     13077
     13076     13075     13078     13077     13075     13078     13075     13078     13079
     13075     13078     13080     13075     13078     13085     13079     13078     13080
     13079     13078     13085     13080     13078     13085     13082     13081     13083
     13082     13081     13084     13082     13081     13085     13083     13081     13084
     13083     13081     13085     13084     13081     13085     13081     13084     13086
     13078     13085     13081     13084     13086     13087     13084     13086     13088
     13084     13086     13089     13087     13086     13088     13087     13086     13089
     13088     13086     13089     13086     13089     13090     13086     13089     13091
     13086     13089     13097     13090     13089     13091     13090     13089     13097
     13091     13089     13097     13089     13091     13092     13091     13092     13093
     13091     13092     13094     13093     13092     13094     13092     13094     13095
     13092     13094     13096     13092     13094     13106     13095     13094     13096
     13095     13094     13106     13096     13094     13106     13089     13097     13098
     13089     13097     13099     13089     13097     13100     13098     13097     13099
     13098     13097     13100     13099     13097     13100     13097     13100     13101
     13100     13101     13102     13100     13101     13103     13102     13101     13103
     13101     13103     13104     13101     13103     13105     13101     13103     13150
     13104     13103     13105     13104     13103     13150     13105     13103     13150
     13094     13106     13107     13094     13106     13108     13094     13106     13109
     13107     13106     13108     13107     13106     13109     13108     13106     13109
     13106     13109     13110     13106     13109     13111     13106     13109     13112
     13110     13109     13111     13110     13109     13112     13111     13109     13112
     13109     13112     13113     13109     13112     13114     13109     13112     13115
     13113     13112     13114     13113     13112     13115     13114     13112     13115
     13112     13115     13116     13112     13115     13117     13112     13115     13118
     13116     13115     13117     13116     13115     13118     13117     13115     13118
     13115     13118     13119     13115     13118     13120     13115     13118     13121
     13119     13118     13120     13119     13118     13121     13120     13118     13121
     13118     13121     13122     13118     13121     13123     13118     13121     13124
     13122     13121     13123     13122     13121     13124     13123     13121     13124
     13121     13124     13125     13121     13124     13126     13121     13124     13129
     13125     13124     13126     13125     13124     13129     13126     13124     13129
     13124     13126     13127     13124     13126     13128     13124     13126     13129
     13127     13126     13128     13127     13126     13129     13128     13126     13129
     13124     13129     13126     13124     13129     13130     13124     13129     13131
     13126     13129     13130     13126     13129     13131     13130     13129     13131
     13129     13131     13132     13129     13131     13133     13129     13131     13134
     13132     13131     13133     13132     13131     13134     13133     13131     13134
     13131     13134     13135     13131     13134     13136     13131     13134     13137
     13135     13134     13136     13135     13134     13137     13136     13134     13137
     13134     13137     13138     13134     13137     13139     13134     13137     13140
     13138     13137     13139     13138     13137     13140     13139     13137     13140
     13137     13140     13141     13137     13140     13142     13137     13140     13143
     13141     13140     13142     13141     13140     13143     13142     13140     13143
     13140     13143     13144     13140     13143     13145     13140     13143     13146
     13144     13143     13145     13144     13143     13146     13145     13143     13146
     13143     13146     13147     13143     13146     13148     13143     13146     13149
     13147     13146     13148     13147     13146     13149     13148     13146     13149
     13103     13150     13151     13103     13150     13152     13103     13150     13153
     13151     13150     13152     13151     13150     13153     13152     13150     13153
     13150     13153     13154     13150     13153     13155     13150     13153     13156
     13154     13153     13155     13154     13153     13156     13155     13153     13156
     13153     13156     13157     13153     13156     13158     13153     13156     13159
     13157     13156     13158     13157     13156     13159     13158     13156     13159
     13156     13159     13160     13156     13159     13161     13156     13159     13162
     13160     13159     13161     13160     13159     13162     13161     13159     13162
     13159     13162     13163     13159     13162     13164     13159     13162     13165
     13163     13162     13164     13163     13162     13165     13164     13162     13165
     13162     13165     13166     13162     13165     13167     13162     13165     13168
     13166     13165     13167     13166     13165     13168     13167     13165     13168
     13165     13168     13169     13165     13168     13170     13165     13168     13171
     13169     13168     13170     13169     13168     13171     13170     13168     13171
     13168     13171     13172     13168     13171     13173     13168     13171     13174
     13172     13171     13173     13172     13171     13174     13173     13171     13174
     13171     13174     13175     13171     13174     13176     13171     13174     13177
     13175     13174     13176     13175     13174     13177     13176     13174     13177
     13174     13177     13178     13174     13177     13179     13174     13177     13180
     13178     13177     13179     13178     13177     13180     13179     13177     13180
     13177     13180     13181     13177     13180     13182     13177     13180     13183
     13181     13180     13182     13181     13180     13183     13182     13180     13183
     13180     13183     13184     13180     13183     13185     13180     13183     13186
     13184     13183     13185     13184     13183     13186     13185     13183     13186
     13183     13186     13187     13183     13186     13188     13183     13186     13189
     13187     13186     13188     13187     13186     13189     13188     13186     13189
     13191     13190     13192     13191     13190     13193     13191     13190     13194
     13192     13190     13193     13192     13190     13194     13193     13190     13194
     13190     13194     13195     13190     13194     13196     13190     13194     13197
     13195     13194     13196     13195     13194     13197     13196     13194     13197
     13194     13197     13198     13194     13197     13199     13194     13197     13204
     13198     13197     13199     13198     13197     13204     13199     13197     13204
     13201     13200     13202     13201     13200     13203     13201     13200     13204
     13202     13200     13203     13202     13200     13204     13203     13200     13204
     13200     13203     13205     13197     13204     13200     13203     13205     13206
     13203     13205     13207     13203     13205     13208     13206     13205     13207
     13206     13205     13208     13207     13205     13208     13205     13208     13209
     13205     13208     13210     13205     13208     13216     13209     13208     13210
     13209     13208     13216     13210     13208     13216     13208     13210     13211
     13210     13211     13212     13210     13211     13213     13212     13211     13213
     13211     13213     13214     13211     13213     13215     13211     13213     13225
     13214     13213     13215     13214     13213     13225     13215     13213     13225
     13208     13216     13217     13208     13216     13218     13208     13216     13219
     13217     13216     13218     13217     13216     13219     13218     13216     13219
     13216     13219     13220     13219     13220     13221     13219     13220     13222
     13221     13220     13222     13220     13222     13223     13220     13222     13224
     13220     13222     13269     13223     13222     13224     13223     13222     13269
     13224     13222     13269     13213     13225     13226     13213     13225     13227
     13213     13225     13228     13226     13225     13227     13226     13225     13228
     13227     13225     13228     13225     13228     13229     13225     13228     13230
     13225     13228     13231     13229     13228     13230     13229     13228     13231
     13230     13228     13231     13228     13231     13232     13228     13231     13233
     13228     13231     13234     13232     13231     13233     13232     13231     13234
     13233     13231     13234     13231     13234     13235     13231     13234     13236
     13231     13234     13237     13235     13234     13236     13235     13234     13237
     13236     13234     13237     13234     13237     13238     13234     13237     13239
     13234     13237     13240     13238     13237     13239     13238     13237     13240
     13239     13237     13240     13237     13240     13241     13237     13240     13242
     13237     13240     13243     13241     13240     13242     13241     13240     13243
     13242     13240     13243     13240     13243     13244     13240     13243     13245
     13240     13243     13248     13244     13243     13245     13244     13243     13248
     13245     13243     13248     13243     13245     13246     13243     13245     13247
     13243     13245     13248     13246     13245     13247     13246     13245     13248
     13247     13245     13248     13243     13248     13245     13243     13248     13249
     13243     13248     13250     13245     13248     13249     13245     13248     13250
     13249     13248     13250     13248     13250     13251     13248     13250     13252
     13248     13250     13253     13251     13250     13252     13251     13250     13253
     13252     13250     13253     13250     13253     13254     13250     13253     13255
     13250     13253     13256     13254     13253     13255     13254     13253     13256
     13255     13253     13256     13253     13256     13257     13253     13256     13258
     13253     13256     13259     13257     13256     13258     13257     13256     13259
     13258     13256     13259     13256     13259     13260     13256     13259     13261
     13256     13259     13262     13260     13259     13261     13260     13259     13262
     13261     13259     13262     13259     13262     13263     13259     13262     13264
     13259     13262     13265     13263     13262     13264     13263     13262     13265
     13264     13262     13265     13262     13265     13266     13262     13265     13267
     13262     13265     13268     13266     13265     13267     13266     13265     13268
     13267     13265     13268     13222     13269     13270     13222     13269     13271
     13222     13269     13272     13270     13269     13271     13270     13269     13272
     13271     13269     13272     13269     13272     13273     13269     13272     13274
     13269     13272     13275     13273     13272     13274     13273     13272     13275
     13274     13272     13275     13272     13275     13276     13272     13275     13277
     13272     13275     13278     13276     13275     13277     13276     13275     13278
     13277     13275     13278     13275     13278     13279     13275     13278     13280
     13275     13278     13281     13279     13278     13280     13279     13278     13281
     13280     13278     13281     13278     13281     13282     13278     13281     13283
     13278     13281     13284     13282     13281     13283     13282     13281     13284
     13283     13281     13284     13281     13284     13285     13281     13284     13286
     13281     13284     13287     13285     13284     13286     13285     13284     13287
     13286     13284     13287     13284     13287     13288     13284     13287     13289
     13284     13287     13290     13288     13287     13289     13288     13287     13290
     13289     13287     13290     13287     13290     13291     13287     13290     13292
     13287     13290     13293     13291     13290     13292     13291     13290     13293
     13292     13290     13293     13290     13293     13294     13290     13293     13295
     13290     13293     13296     13294     13293     13295     13294     13293     13296
     13295     13293     13296     13293     13296     13297     13293     13296     13298
     13293     13296     13299     13297     13296     13298     13297     13296     13299
     13298     13296     13299     13296     13299     13300     13296     13299     13301
     13296     13299     13302     13300     13299     13301     13300     13299     13302
     13301     13299     13302     13299     13302     13303     13299     13302     13304
     13299     13302     13305     13303     13302     13304     13303     13302     13305
     13304     13302     13305     13302     13305     13306     13302     13305     13307
     13302     13305     13308     13306     13305     13307     13306     13305     13308
     13307     13305     13308     13305     13308     13309     13305     13308     13310
     13305     13308     13311     13309     13308     13310     13309     13308     13311
     13310     13308     13311     13313     13312     13314     13313     13312     13315
     13313     13312     13316     13314     13312     13315     13314     13312     13316
     13315     13312     13316     13312     13316     13317     13312     13316     13318
     13312     13316     13319     13317     13316     13318     13317     13316     13319
     13318     13316     13319     13316     13319     13320     13316     13319     13321
     13316     13319     13326     13320     13319     13321     13320     13319     13326
     13321     13319     13326     13323     13322     13324     13323     13322     13325
     13323     13322     13326     13324     13322     13325     13324     13322     13326
     13325     13322     13326     13322     13325     13327     13319     13326     13322
     13325     13327     13328     13325     13327     13329     13325     13327     13330
     13328     13327     13329     13328     13327     13330     13329     13327     13330
     13327     13330     13331     13327     13330     13332     13327     13330     13338
     13331     13330     13332     13331     13330     13338     13332     13330     13338
     13330     13332     13333     13332     13333     13334     13332     13333     13335
     13334     13333     13335     13333     13335     13336     13333     13335     13337
     13333     13335     13347     13336     13335     13337     13336     13335     13347
     13337     13335     13347     13330     13338     13339     13330     13338     13340
     13330     13338     13341     13339     13338     13340     13339     13338     13341
     13340     13338     13341     13338     13341     13342     13341     13342     13343
     13341     13342     13344     13343     13342     13344     13342     13344     13345
     13342     13344     13346     13342     13344     13391     13345     13344     13346
     13345     13344     13391     13346     13344     13391     13335     13347     13348
     13335     13347     13349     13335     13347     13350     13348     13347     13349
     13348     13347     13350     13349     13347     13350     13347     13350     13351
     13347     13350     13352     13347     13350     13353     13351     13350     13352
     13351     13350     13353     13352     13350     13353     13350     13353     13354
     13350     13353     13355     13350     13353     13356     13354     13353     13355
     13354     13353     13356     13355     13353     13356     13353     13356     13357
     13353     13356     13358     13353     13356     13359     13357     13356     13358
     13357     13356     13359     13358     13356     13359     13356     13359     13360
     13356     13359     13361     13356     13359     13362     13360     13359     13361
     13360     13359     13362     13361     13359     13362     13359     13362     13363
     13359     13362     13364     13359     13362     13365     13363     13362     13364
     13363     13362     13365     13364     13362     13365     13362     13365     13366
     13362     13365     13367     13362     13365     13370     13366     13365     13367
     13366     13365     13370     13367     13365     13370     13365     13367     13368
     13365     13367     13369     13365     13367     13370     13368     13367     13369
     13368     13367     13370     13369     13367     13370     13365     13370     13367
     13365     13370     13371     13365     13370     13372     13367     13370     13371
     13367     13370     13372     13371     13370     13372     13370     13372     13373
     13370     13372     13374     13370     13372     13375     13373     13372     13374
     13373     13372     13375     13374     13372     13375     13372     13375     13376
     13372     13375     13377     13372     13375     13378     13376     13375     13377
     13376     13375     13378     13377     13375     13378     13375     13378     13379
     13375     13378     13380     13375     13378     13381     13379     13378     13380
     13379     13378     13381     13380     13378     13381     13378     13381     13382
     13378     13381     13383     13378     13381     13384     13382     13381     13383
     13382     13381     13384     13383     13381     13384     13381     13384     13385
     13381     13384     13386     13381     13384     13387     13385     13384     13386
     13385     13384     13387     13386     13384     13387     13384     13387     13388
     13384     13387     13389     13384     13387     13390     13388     13387     13389
     13388     13387     13390     13389     13387     13390     13344     13391     13392
     13344     13391     13393     13344     13391     13394     13392     13391     13393
     13392     13391     13394     13393     13391     13394     13391     13394     13395
     13391     13394     13396     13391     13394     13397     13395     13394     13396
     13395     13394     13397     13396     13394     13397     13394     13397     13398
     13394     13397     13399     13394     13397     13400     13398     13397     13399
     13398     13397     13400     13399     13397     13400     13397     13400     13401
     13397     13400     13402     13397     13400     13403     13401     13400     13402
     13401     13400     13403     13402     13400     13403     13400     13403     13404
     13400     13403     13405     13400     13403     13406     13404     13403     13405
     13404     13403     13406     13405     13403     13406     13403     13406     13407
     13403     13406     13408     13403     13406     13409     13407     13406     13408
     13407     13406     13409     13408     13406     13409     13406     13409     13410
     13406     13409     13411     13406     13409     13412     13410     13409     13411
     13410     13409     13412     13411     13409     13412     13409     13412     13413
     13409     13412     13414     13409     13412     13415     13413     13412     13414
     13413     13412     13415     13414     13412     13415     13412     13415     13416
     13412     13415     13417     13412     13415     13418     13416     13415     13417
     13416     13415     13418     13417     13415     13418     13415     13418     13419
     13415     13418     13420     13415     13418     13421     13419     13418     13420
     13419     13418     13421     13420     13418     13421     13418     13421     13422
     13418     13421     13423     13418     13421     13424     13422     13421     13423
     13422     13421     13424     13423     13421     13424     13421     13424     13425
     13421     13424     13426     13421     13424     13427     13425     13424     13426
     13425     13424     13427     13426     13424     13427     13424     13427     13428
     13424     13427     13429     13424     13427     13430     13428     13427     13429
     13428     13427     13430     13429     13427     13430     13427     13430     13431
     13427     13430     13432     13427     13430     13433     13431     13430     13432
     13431     13430     13433     13432     13430     13433     13435     13434     13436
     13435     13434     13437     13435     13434     13438     13436     13434     13437
     13436     13434     13438     13437     13434     13438     13434     13438     13439
     13434     13438     13440     13434     13438     13441     13439     13438     13440
     13439     13438     13441     13440     13438     13441     13438     13441     13442
     13438     13441     13443     13438     13441     13448     13442     13441     13443
     13442     13441     13448     13443     13441     13448     13445     13444     13446
     13445     13444     13447     13445     13444     13448     13446     13444     13447
     13446     13444     13448     13447     13444     13448     13444     13447     13449
     13441     13448     13444     13447     13449     13450     13447     13449     13451
     13447     13449     13452     13450     13449     13451     13450     13449     13452
     13451     13449     13452     13449     13452     13453     13449     13452     13454
     13449     13452     13460     13453     13452     13454     13453     13452     13460
     13454     13452     13460     13452     13454     13455     13454     13455     13456
     13454     13455     13457     13456     13455     13457     13455     13457     13458
     13455     13457     13459     13455     13457     13469     13458     13457     13459
     13458     13457     13469     13459     13457     13469     13452     13460     13461
     13452     13460     13462     13452     13460     13463     13461     13460     13462
     13461     13460     13463     13462     13460     13463     13460     13463     13464
     13463     13464     13465     13463     13464     13466     13465     13464     13466
     13464     13466     13467     13464     13466     13468     13464     13466     13513
     13467     13466     13468     13467     13466     13513     13468     13466     13513
     13457     13469     13470     13457     13469     13471     13457     13469     13472
     13470     13469     13471     13470     13469     13472     13471     13469     13472
     13469     13472     13473     13469     13472     13474     13469     13472     13475
     13473     13472     13474     13473     13472     13475     13474     13472     13475
     13472     13475     13476     13472     13475     13477     13472     13475     13478
     13476     13475     13477     13476     13475     13478     13477     13475     13478
     13475     13478     13479     13475     13478     13480     13475     13478     13481
     13479     13478     13480     13479     13478     13481     13480     13478     13481
     13478     13481     13482     13478     13481     13483     13478     13481     13484
     13482     13481     13483     13482     13481     13484     13483     13481     13484
     13481     13484     13485     13481     13484     13486     13481     13484     13487
     13485     13484     13486     13485     13484     13487     13486     13484     13487
     13484     13487     13488     13484     13487     13489     13484     13487     13492
     13488     13487     13489     13488     13487     13492     13489     13487     13492
     13487     13489     13490     13487     13489     13491     13487     13489     13492
     13490     13489     13491     13490     13489     13492     13491     13489     13492
     13487     13492     13489     13487     13492     13493     13487     13492     13494
     13489     13492     13493     13489     13492     13494     13493     13492     13494
     13492     13494     13495     13492     13494     13496     13492     13494     13497
     13495     13494     13496     13495     13494     13497     13496     13494     13497
     13494     13497     13498     13494     13497     13499     13494     13497     13500
     13498     13497     13499     13498     13497     13500     13499     13497     13500
     13497     13500     13501     13497     13500     13502     13497     13500     13503
     13501     13500     13502     13501     13500     13503     13502     13500     13503
     13500     13503     13504     13500     13503     13505     13500     13503     13506
     13504     13503     13505     13504     13503     13506     13505     13503     13506
     13503     13506     13507     13503     13506     13508     13503     13506     13509
     13507     13506     13508     13507     13506     13509     13508     13506     13509
     13506     13509     13510     13506     13509     13511     13506     13509     13512
     13510     13509     13511     13510     13509     13512     13511     13509     13512
     13466     13513     13514     13466     13513     13515     13466     13513     13516
     13514     13513     13515     13514     13513     13516     13515     13513     13516
     13513     13516     13517     13513     13516     13518     13513     13516     13519
     13517     13516     13518     13517     13516     13519     13518     13516     13519
     13516     13519     13520     13516     13519     13521     13516     13519     13522
     13520     13519     13521     13520     13519     13522     13521     13519     13522
     13519     13522     13523     13519     13522     13524     13519     13522     13525
     13523     13522     13524     13523     13522     13525     13524     13522     13525
     13522     13525     13526     13522     13525     13527     13522     13525     13528
     13526     13525     13527     13526     13525     13528     13527     13525     13528
     13525     13528     13529     13525     13528     13530     13525     13528     13531
     13529     13528     13530     13529     13528     13531     13530     13528     13531
     13528     13531     13532     13528     13531     13533     13528     13531     13534
     13532     13531     13533     13532     13531     13534     13533     13531     13534
     13531     13534     13535     13531     13534     13536     13531     13534     13537
     13535     13534     13536     13535     13534     13537     13536     13534     13537
     13534     13537     13538     13534     13537     13539     13534     13537     13540
     13538     13537     13539     13538     13537     13540     13539     13537     13540
     13537     13540     13541     13537     13540     13542     13537     13540     13543
     13541     13540     13542     13541     13540     13543     13542     13540     13543
     13540     13543     13544     13540     13543     13545     13540     13543     13546
     13544     13543     13545     13544     13543     13546     13545     13543     13546
     13543     13546     13547     13543     13546     13548     13543     13546     13549
     13547     13546     13548     13547     13546     13549     13548     13546     13549
     13546     13549     13550     13546     13549     13551     13546     13549     13552
     13550     13549     13551     13550     13549     13552     13551     13549     13552
     13549     13552     13553     13549     13552     13554     13549     13552     13555
     13553     13552     13554     13553     13552     13555     13554     13552     13555
     13557     13556     13558     13557     13556     13559     13557     13556     13560
     13558     13556     13559     13558     13556     13560     13559     13556     13560
     13556     13560     13561     13556     13560     13562     13556     13560     13563
     13561     13560     13562     13561     13560     13563     13562     13560     13563
     13560     13563     13564     13560     13563     13565     13560     13563     13570
     13564     13563     13565     13564     13563     13570     13565     13563     13570
     13567     13566     13568     13567     13566     13569     13567     13566     13570
     13568     13566     13569     13568     13566     13570     13569     13566     13570
     13566     13569     13571     13563     13570     13566     13569     13571     13572
     13569     13571     13573     13569     13571     13574     13572     13571     13573
     13572     13571     13574     13573     13571     13574     13571     13574     13575
     13571     13574     13576     13571     13574     13582     13575     13574     13576
     13575     13574     13582     13576     13574     13582     13574     13576     13577
     13576     13577     13578     13576     13577     13579     13578     13577     13579
     13577     13579     13580     13577     13579     13581     13577     13579     13591
     13580     13579     13581     13580     13579     13591     13581     13579     13591
     13574     13582     13583     13574     13582     13584     13574     13582     13585
     13583     13582     13584     13583     13582     13585     13584     13582     13585
     13582     13585     13586     13585     13586     13587     13585     13586     13588
     13587     13586     13588     13586     13588     13589     13586     13588     13590
     13586     13588     13635     13589     13588     13590     13589     13588     13635
     13590     13588     13635     13579     13591     13592     13579     13591     13593
     13579     13591     13594     13592     13591     13593     13592     13591     13594
     13593     13591     13594     13591     13594     13595     13591     13594     13596
     13591     13594     13597     13595     13594     13596     13595     13594     13597
     13596     13594     13597     13594     13597     13598     13594     13597     13599
     13594     13597     13600     13598     13597     13599     13598     13597     13600
     13599     13597     13600     13597     13600     13601     13597     13600     13602
     13597     13600     13603     13601     13600     13602     13601     13600     13603
     13602     13600     13603     13600     13603     13604     13600     13603     13605
     13600     13603     13606     13604     13603     13605     13604     13603     13606
     13605     13603     13606     13603     13606     13607     13603     13606     13608
     13603     13606     13609     13607     13606     13608     13607     13606     13609
     13608     13606     13609     13606     13609     13610     13606     13609     13611
     13606     13609     13614     13610     13609     13611     13610     13609     13614
     13611     13609     13614     13609     13611     13612     13609     13611     13613
     13609     13611     13614     13612     13611     13613     13612     13611     13614
     13613     13611     13614     13609     13614     13611     13609     13614     13615
     13609     13614     13616     13611     13614     13615     13611     13614     13616
     13615     13614     13616     13614     13616     13617     13614     13616     13618
     13614     13616     13619     13617     13616     13618     13617     13616     13619
     13618     13616     13619     13616     13619     13620     13616     13619     13621
     13616     13619     13622     13620     13619     13621     13620     13619     13622
     13621     13619     13622     13619     13622     13623     13619     13622     13624
     13619     13622     13625     13623     13622     13624     13623     13622     13625
     13624     13622     13625     13622     13625     13626     13622     13625     13627
     13622     13625     13628     13626     13625     13627     13626     13625     13628
     13627     13625     13628     13625     13628     13629     13625     13628     13630
     13625     13628     13631     13629     13628     13630     13629     13628     13631
     13630     13628     13631     13628     13631     13632     13628     13631     13633
     13628     13631     13634     13632     13631     13633     13632     13631     13634
     13633     13631     13634     13588     13635     13636     13588     13635     13637
     13588     13635     13638     13636     13635     13637     13636     13635     13638
     13637     13635     13638     13635     13638     13639     13635     13638     13640
     13635     13638     13641     13639     13638     13640     13639     13638     13641
     13640     13638     13641     13638     13641     13642     13638     13641     13643
     13638     13641     13644     13642     13641     13643     13642     13641     13644
     13643     13641     13644     13641     13644     13645     13641     13644     13646
     13641     13644     13647     13645     13644     13646     13645     13644     13647
     13646     13644     13647     13644     13647     13648     13644     13647     13649
     13644     13647     13650     13648     13647     13649     13648     13647     13650
     13649     13647     13650     13647     13650     13651     13647     13650     13652
     13647     13650     13653     13651     13650     13652     13651     13650     13653
     13652     13650     13653     13650     13653     13654     13650     13653     13655
     13650     13653     13656     13654     13653     13655     13654     13653     13656
     13655     13653     13656     13653     13656     13657     13653     13656     13658
     13653     13656     13659     13657     13656     13658     13657     13656     13659
     13658     13656     13659     13656     13659     13660     13656     13659     13661
     13656     13659     13662     13660     13659     13661     13660     13659     13662
     13661     13659     13662     13659     13662     13663     13659     13662     13664
     13659     13662     13665     13663     13662     13664     13663     13662     13665
     13664     13662     13665     13662     13665     13666     13662     13665     13667
     13662     13665     13668     13666     13665     13667     13666     13665     13668
     13667     13665     13668     13665     13668     13669     13665     13668     13670
     13665     13668     13671     13669     13668     13670     13669     13668     13671
     13670     13668     13671     13668     13671     13672     13668     13671     13673
     13668     13671     13674     13672     13671     13673     13672     13671     13674
     13673     13671     13674     13671     13674     13675     13671     13674     13676
     13671     13674     13677     13675     13674     13676     13675     13674     13677
     13676     13674     13677     13679     13678     13680     13679     13678     13681
     13679     13678     13682     13680     13678     13681     13680     13678     13682
     13681     13678     13682     13678     13682     13683     13678     13682     13684
     13678     13682     13685     13683     13682     13684     13683     13682     13685
     13684     13682     13685     13682     13685     13686     13682     13685     13687
     13682     13685     13692     13686     13685     13687     13686     13685     13692
     13687     13685     13692     13689     13688     13690     13689     13688     13691
     13689     13688     13692     13690     13688     13691     13690     13688     13692
     13691     13688     13692     13688     13691     13693     13685     13692     13688
     13691     13693     13694     13691     13693     13695     13691     13693     13696
     13694     13693     13695     13694     13693     13696     13695     13693     13696
     13693     13696     13697     13693     13696     13698     13693     13696     13704
     13697     13696     13698     13697     13696     13704     13698     13696     13704
     13696     13698     13699     13698     13699     13700     13698     13699     13701
     13700     13699     13701     13699     13701     13702     13699     13701     13703
     13699     13701     13713     13702     13701     13703     13702     13701     13713
     13703     13701     13713     13696     13704     13705     13696     13704     13706
     13696     13704     13707     13705     13704     13706     13705     13704     13707
     13706     13704     13707     13704     13707     13708     13707     13708     13709
     13707     13708     13710     13709     13708     13710     13708     13710     13711
     13708     13710     13712     13708     13710     13757     13711     13710     13712
     13711     13710     13757     13712     13710     13757     13701     13713     13714
     13701     13713     13715     13701     13713     13716     13714     13713     13715
     13714     13713     13716     13715     13713     13716     13713     13716     13717
     13713     13716     13718     13713     13716     13719     13717     13716     13718
     13717     13716     13719     13718     13716     13719     13716     13719     13720
     13716     13719     13721     13716     13719     13722     13720     13719     13721
     13720     13719     13722     13721     13719     13722     13719     13722     13723
     13719     13722     13724     13719     13722     13725     13723     13722     13724
     13723     13722     13725     13724     13722     13725     13722     13725     13726
     13722     13725     13727     13722     13725     13728     13726     13725     13727
     13726     13725     13728     13727     13725     13728     13725     13728     13729
     13725     13728     13730     13725     13728     13731     13729     13728     13730
     13729     13728     13731     13730     13728     13731     13728     13731     13732
     13728     13731     13733     13728     13731     13736     13732     13731     13733
     13732     13731     13736     13733     13731     13736     13731     13733     13734
     13731     13733     13735     13731     13733     13736     13734     13733     13735
     13734     13733     13736     13735     13733     13736     13731     13736     13733
     13731     13736     13737     13731     13736     13738     13733     13736     13737
     13733     13736     13738     13737     13736     13738     13736     13738     13739
     13736     13738     13740     13736     13738     13741     13739     13738     13740
     13739     13738     13741     13740     13738     13741     13738     13741     13742
     13738     13741     13743     13738     13741     13744     13742     13741     13743
     13742     13741     13744     13743     13741     13744     13741     13744     13745
     13741     13744     13746     13741     13744     13747     13745     13744     13746
     13745     13744     13747     13746     13744     13747     13744     13747     13748
     13744     13747     13749     13744     13747     13750     13748     13747     13749
     13748     13747     13750     13749     13747     13750     13747     13750     13751
     13747     13750     13752     13747     13750     13753     13751     13750     13752
     13751     13750     13753     13752     13750     13753     13750     13753     13754
     13750     13753     13755     13750     13753     13756     13754     13753     13755
     13754     13753     13756     13755     13753     13756     13710     13757     13758
     13710     13757     13759     13710     13757     13760     13758     13757     13759
     13758     13757     13760     13759     13757     13760     13757     13760     13761
     13757     13760     13762     13757     13760     13763     13761     13760     13762
     13761     13760     13763     13762     13760     13763     13760     13763     13764
     13760     13763     13765     13760     13763     13766     13764     13763     13765
     13764     13763     13766     13765     13763     13766     13763     13766     13767
     13763     13766     13768     13763     13766     13769     13767     13766     13768
     13767     13766     13769     13768     13766     13769     13766     13769     13770
     13766     13769     13771     13766     13769     13772     13770     13769     13771
     13770     13769     13772     13771     13769     13772     13769     13772     13773
     13769     13772     13774     13769     13772     13775     13773     13772     13774
     13773     13772     13775     13774     13772     13775     13772     13775     13776
     13772     13775     13777     13772     13775     13778     13776     13775     13777
     13776     13775     13778     13777     13775     13778     13775     13778     13779
     13775     13778     13780     13775     13778     13781     13779     13778     13780
     13779     13778     13781     13780     13778     13781     13778     13781     13782
     13778     13781     13783     13778     13781     13784     13782     13781     13783
     13782     13781     13784     13783     13781     13784     13781     13784     13785
     13781     13784     13786     13781     13784     13787     13785     13784     13786
     13785     13784     13787     13786     13784     13787     13784     13787     13788
     13784     13787     13789     13784     13787     13790     13788     13787     13789
     13788     13787     13790     13789     13787     13790     13787     13790     13791
     13787     13790     13792     13787     13790     13793     13791     13790     13792
     13791     13790     13793     13792     13790     13793     13790     13793     13794
     13790     13793     13795     13790     13793     13796     13794     13793     13795
     13794     13793     13796     13795     13793     13796     13793     13796     13797
     13793     13796     13798     13793     13796     13799     13797     13796     13798
     13797     13796     13799     13798     13796     13799     13801     13800     13802
     13801     13800     13803     13801     13800     13804     13802     13800     13803
     13802     13800     13804     13803     13800     13804     13800     13804     13805
     13800     13804     13806     13800     13804     13807     13805     13804     13806
     13805     13804     13807     13806     13804     13807     13804     13807     13808
     13804     13807     13809     13804     13807     13814     13808     13807     13809
     13808     13807     13814     13809     13807     13814     13811     13810     13812
     13811     13810     13813     13811     13810     13814     13812     13810     13813
     13812     13810     13814     13813     13810     13814     13810     13813     13815
     13807     13814     13810     13813     13815     13816     13813     13815     13817
     13813     13815     13818     13816     13815     13817     13816     13815     13818
     13817     13815     13818     13815     13818     13819     13815     13818     13820
     13815     13818     13826     13819     13818     13820     13819     13818     13826
     13820     13818     13826     13818     13820     13821     13820     13821     13822
     13820     13821     13823     13822     13821     13823     13821     13823     13824
     13821     13823     13825     13821     13823     13835     13824     13823     13825
     13824     13823     13835     13825     13823     13835     13818     13826     13827
     13818     13826     13828     13818     13826     13829     13827     13826     13828
     13827     13826     13829     13828     13826     13829     13826     13829     13830
     13829     13830     13831     13829     13830     13832     13831     13830     13832
     13830     13832     13833     13830     13832     13834     13830     13832     13879
     13833     13832     13834     13833     13832     13879     13834     13832     13879
     13823     13835     13836     13823     13835     13837     13823     13835     13838
     13836     13835     13837     13836     13835     13838     13837     13835     13838
     13835     13838     13839     13835     13838     13840     13835     13838     13841
     13839     13838     13840     13839     13838     13841     13840     13838     13841
     13838     13841     13842     13838     13841     13843     13838     13841     13844
     13842     13841     13843     13842     13841     13844     13843     13841     13844
     13841     13844     13845     13841     13844     13846     13841     13844     13847
     13845     13844     13846     13845     13844     13847     13846     13844     13847
     13844     13847     13848     13844     13847     13849     13844     13847     13850
     13848     13847     13849     13848     13847     13850     13849     13847     13850
     13847     13850     13851     13847     13850     13852     13847     13850     13853
     13851     13850     13852     13851     13850     13853     13852     13850     13853
     13850     13853     13854     13850     13853     13855     13850     13853     13858
     13854     13853     13855     13854     13853     13858     13855     13853     13858
     13853     13855     13856     13853     13855     13857     13853     13855     13858
     13856     13855     13857     13856     13855     13858     13857     13855     13858
     13853     13858     13855     13853     13858     13859     13853     13858     13860
     13855     13858     13859     13855     13858     13860     13859     13858     13860
     13858     13860     13861     13858     13860     13862     13858     13860     13863
     13861     13860     13862     13861     13860     13863     13862     13860     13863
     13860     13863     13864     13860     13863     13865     13860     13863     13866
     13864     13863     13865     13864     13863     13866     13865     13863     13866
     13863     13866     13867     13863     13866     13868     13863     13866     13869
     13867     13866     13868     13867     13866     13869     13868     13866     13869
     13866     13869     13870     13866     13869     13871     13866     13869     13872
     13870     13869     13871     13870     13869     13872     13871     13869     13872
     13869     13872     13873     13869     13872     13874     13869     13872     13875
     13873     13872     13874     13873     13872     13875     13874     13872     13875
     13872     13875     13876     13872     13875     13877     13872     13875     13878
     13876     13875     13877     13876     13875     13878     13877     13875     13878
     13832     13879     13880     13832     13879     13881     13832     13879     13882
     13880     13879     13881     13880     13879     13882     13881     13879     13882
     13879     13882     13883     13879     13882     13884     13879     13882     13885
     13883     13882     13884     13883     13882     13885     13884     13882     13885
     13882     13885     13886     13882     13885     13887     13882     13885     13888
     13886     13885     13887     13886     13885     13888     13887     13885     13888
     13885     13888     13889     13885     13888     13890     13885     13888     13891
     13889     13888     13890     13889     13888     13891     13890     13888     13891
     13888     13891     13892     13888     13891     13893     13888     13891     13894
     13892     13891     13893     13892     13891     13894     13893     13891     13894
     13891     13894     13895     13891     13894     13896     13891     13894     13897
     13895     13894     13896     13895     13894     13897     13896     13894     13897
     13894     13897     13898     13894     13897     13899     13894     13897     13900
     13898     13897     13899     13898     13897     13900     13899     13897     13900
     13897     13900     13901     13897     13900     13902     13897     13900     13903
     13901     13900     13902     13901     13900     13903     13902     13900     13903
     13900     13903     13904     13900     13903     13905     13900     13903     13906
     13904     13903     13905     13904     13903     13906     13905     13903     13906
     13903     13906     13907     13903     13906     13908     13903     13906     13909
     13907     13906     13908     13907     13906     13909     13908     13906     13909
     13906     13909     13910     13906     13909     13911     13906     13909     13912
     13910     13909     13911     13910     13909     13912     13911     13909     13912
     13909     13912     13913     13909     13912     13914     13909     13912     13915
     13913     13912     13914     13913     13912     13915     13914     13912     13915
     13912     13915     13916     13912     13915     13917     13912     13915     13918
     13916     13915     13917     13916     13915     13918     13917     13915     13918
     13920     13919     13921     13920     13919     13922     13920     13919     13924
     13921     13919     13922     13921     13919     13924     13922     13919     13924
     13919     13922     13923     13919     13924     13925     13919     13924     13926
     13919     13924     13928     13925     13924     13926     13925     13924     13928
     13926     13924     13928     13924     13926     13927     13924     13928     13929
     13924     13928     13930     13924     13928     13935     13929     13928     13930
     13929     13928     13935     13930     13928     13935     13932     13931     13933
     13932     13931     13934     13932     13931     13935     13933     13931     13934
     13933     13931     13935     13934     13931     13935     13931     13934     13936
     13928     13935     13931     13934     13936     13937     13934     13936     13938
     13934     13936     13939     13937     13936     13938     13937     13936     13939
     13938     13936     13939     13936     13939     13940     13936     13939     13941
     13936     13939     13947     13940     13939     13941     13940     13939     13947
     13941     13939     13947     13939     13941     13942     13941     13942     13943
     13941     13942     13944     13943     13942     13944     13942     13944     13945
     13942     13944     13946     13942     13944     13956     13945     13944     13946
     13945     13944     13956     13946     13944     13956     13939     13947     13948
     13939     13947     13949     13939     13947     13950     13948     13947     13949
     13948     13947     13950     13949     13947     13950     13947     13950     13951
     13950     13951     13952     13950     13951     13953     13952     13951     13953
     13951     13953     13954     13951     13953     13955     13951     13953     14000
     13954     13953     13955     13954     13953     14000     13955     13953     14000
     13944     13956     13957     13944     13956     13958     13944     13956     13959
     13957     13956     13958     13957     13956     13959     13958     13956     13959
     13956     13959     13960     13956     13959     13961     13956     13959     13962
     13960     13959     13961     13960     13959     13962     13961     13959     13962
     13959     13962     13963     13959     13962     13964     13959     13962     13965
     13963     13962     13964     13963     13962     13965     13964     13962     13965
     13962     13965     13966     13962     13965     13967     13962     13965     13968
     13966     13965     13967     13966     13965     13968     13967     13965     13968
     13965     13968     13969     13965     13968     13970     13965     13968     13971
     13969     13968     13970     13969     13968     13971     13970     13968     13971
     13968     13971     13972     13968     13971     13973     13968     13971     13974
     13972     13971     13973     13972     13971     13974     13973     13971     13974
     13971     13974     13975     13971     13974     13976     13971     13974     13979
     13975     13974     13976     13975     13974     13979     13976     13974     13979
     13974     13976     13977     13974     13976     13978     13974     13976     13979
     13977     13976     13978     13977     13976     13979     13978     13976     13979
     13974     13979     13976     13974     13979     13980     13974     13979     13981
     13976     13979     13980     13976     13979     13981     13980     13979     13981
     13979     13981     13982     13979     13981     13983     13979     13981     13984
     13982     13981     13983     13982     13981     13984     13983     13981     13984
     13981     13984     13985     13981     13984     13986     13981     13984     13987
     13985     13984     13986     13985     13984     13987     13986     13984     13987
     13984     13987     13988     13984     13987     13989     13984     13987     13990
     13988     13987     13989     13988     13987     13990     13989     13987     13990
     13987     13990     13991     13987     13990     13992     13987     13990     13993
     13991     13990     13992     13991     13990     13993     13992     13990     13993
     13990     13993     13994     13990     13993     13995     13990     13993     13996
     13994     13993     13995     13994     13993     13996     13995     13993     13996
     13993     13996     13997     13993     13996     13998     13993     13996     13999
     13997     13996     13998     13997     13996     13999     13998     13996     13999
     13953     14000     14001     13953     14000     14002     13953     14000     14003
     14001     14000     14002     14001     14000     14003     14002     14000     14003
     14000     14003     14004     14000     14003     14005     14000     14003     14006
     14004     14003     14005     14004     14003     14006     14005     14003     14006
     14003     14006     14007     14003     14006     14008     14003     14006     14009
     14007     14006     14008     14007     14006     14009     14008     14006     14009
     14006     14009     14010     14006     14009     14011     14006     14009     14012
     14010     14009     14011     14010     14009     14012     14011     14009     14012
     14009     14012     14013     14009     14012     14014     14009     14012     14015
     14013     14012     14014     14013     14012     14015     14014     14012     14015
     14012     14015     14016     14012     14015     14017     14012     14015     14018
     14016     14015     14017     14016     14015     14018     14017     14015     14018
     14015     14018     14019     14015     14018     14020     14015     14018     14021
     14019     14018     14020     14019     14018     14021     14020     14018     14021
     14018     14021     14022     14018     14021     14023     14018     14021     14024
     14022     14021     14023     14022     14021     14024     14023     14021     14024
     14021     14024     14025     14021     14024     14026     14021     14024     14027
     14025     14024     14026     14025     14024     14027     14026     14024     14027
     14024     14027     14028     14024     14027     14029     14024     14027     14030
     14028     14027     14029     14028     14027     14030     14029     14027     14030
     14027     14030     14031     14027     14030     14032     14027     14030     14033
     14031     14030     14032     14031     14030     14033     14032     14030     14033
     14030     14033     14034     14030     14033     14035     14030     14033     14036
     14034     14033     14035     14034     14033     14036     14035     14033     14036
     14033     14036     14037     14033     14036     14038     14033     14036     14039
     14037     14036     14038     14037     14036     14039     14038     14036     14039
     14036     14039     14040     14036     14039     14041     14036     14039     14042
     14040     14039     14041     14040     14039     14042     14041     14039     14042
     14044     14043     14045     14044     14043     14046     14044     14043     14047
     14045     14043     14046     14045     14043     14047     14046     14043     14047
     14043     14047     14048     14043     14047     14049     14043     14047     14050
     14048     14047     14049     14048     14047     14050     14049     14047     14050
     14047     14050     14051     14047     14050     14052     14047     14050     14057
     14051     14050     14052     14051     14050     14057     14052     14050     14057
     14054     14053     14055     14054     14053     14056     14054     14053     14057
     14055     14053     14056     14055     14053     14057     14056     14053     14057
     14053     14056     14058     14050     14057     14053     14056     14058     14059
     14056     14058     14060     14056     14058     14061     14059     14058     14060
     14059     14058     14061     14060     14058     14061     14058     14061     14062
     14058     14061     14063     14058     14061     14069     14062     14061     14063
     14062     14061     14069     14063     14061     14069     14061     14063     14064
     14063     14064     14065     14063     14064     14066     14065     14064     14066
     14064     14066     14067     14064     14066     14068     14064     14066     14078
     14067     14066     14068     14067     14066     14078     14068     14066     14078
     14061     14069     14070     14061     14069     14071     14061     14069     14072
     14070     14069     14071     14070     14069     14072     14071     14069     14072
     14069     14072     14073     14072     14073     14074     14072     14073     14075
     14074     14073     14075     14073     14075     14076     14073     14075     14077
     14073     14075     14125     14076     14075     14077     14076     14075     14125
     14077     14075     14125     14066     14078     14079     14066     14078     14080
     14066     14078     14081     14079     14078     14080     14079     14078     14081
     14080     14078     14081     14078     14081     14082     14078     14081     14083
     14078     14081     14084     14082     14081     14083     14082     14081     14084
     14083     14081     14084     14081     14084     14085     14081     14084     14086
     14081     14084     14087     14085     14084     14086     14085     14084     14087
     14086     14084     14087     14084     14087     14088     14084     14087     14089
     14084     14087     14090     14088     14087     14089     14088     14087     14090
     14089     14087     14090     14087     14090     14091     14087     14090     14092
     14087     14090     14093     14091     14090     14092     14091     14090     14093
     14092     14090     14093     14090     14093     14094     14090     14093     14095
     14090     14093     14096     14094     14093     14095     14094     14093     14096
     14095     14093     14096     14093     14096     14097     14093     14096     14098
     14097     14096     14098     14096     14098     14099     14096     14098     14100
     14099     14098     14100     14098     14100     14101     14098     14100     14102
     14098     14100     14103     14101     14100     14102     14101     14100     14103
     14102     14100     14103     14100     14103     14104     14100     14103     14105
     14100     14103     14106     14104     14103     14105     14104     14103     14106
     14105     14103     14106     14103     14106     14107     14103     14106     14108
     14103     14106     14109     14107     14106     14108     14107     14106     14109
     14108     14106     14109     14106     14109     14110     14106     14109     14111
     14106     14109     14112     14110     14109     14111     14110     14109     14112
     14111     14109     14112     14109     14112     14113     14109     14112     14114
     14109     14112     14115     14113     14112     14114     14113     14112     14115
     14114     14112     14115     14112     14115     14116     14112     14115     14117
     14112     14115     14118     14116     14115     14117     14116     14115     14118
     14117     14115     14118     14115     14118     14119     14115     14118     14120
     14115     14118     14121     14119     14118     14120     14119     14118     14121
     14120     14118     14121     14118     14121     14122     14118     14121     14123
     14118     14121     14124     14122     14121     14123     14122     14121     14124
     14123     14121     14124     14075     14125     14126     14075     14125     14127
     14075     14125     14128     14126     14125     14127     14126     14125     14128
     14127     14125     14128     14125     14128     14129     14125     14128     14130
     14125     14128     14131     14129     14128     14130     14129     14128     14131
     14130     14128     14131     14128     14131     14132     14128     14131     14133
     14128     14131     14134     14132     14131     14133     14132     14131     14134
     14133     14131     14134     14131     14134     14135     14131     14134     14136
     14131     14134     14137     14135     14134     14136     14135     14134     14137
     14136     14134     14137     14134     14137     14138     14134     14137     14139
     14134     14137     14140     14138     14137     14139     14138     14137     14140
     14139     14137     14140     14137     14140     14141     14137     14140     14142
     14137     14140     14143     14141     14140     14142     14141     14140     14143
     14142     14140     14143     14140     14143     14144     14140     14143     14145
     14140     14143     14146     14144     14143     14145     14144     14143     14146
     14145     14143     14146     14143     14146     14147     14143     14146     14148
     14143     14146     14149     14147     14146     14148     14147     14146     14149
     14148     14146     14149     14146     14149     14150     14146     14149     14151
     14146     14149     14152     14150     14149     14151     14150     14149     14152
     14151     14149     14152     14149     14152     14153     14149     14152     14154
     14149     14152     14155     14153     14152     14154     14153     14152     14155
     14154     14152     14155     14152     14155     14156     14152     14155     14157
     14152     14155     14158     14156     14155     14157     14156     14155     14158
     14157     14155     14158     14155     14158     14159     14155     14158     14160
     14155     14158     14161     14159     14158     14160     14159     14158     14161
     14160     14158     14161     14158     14161     14162     14158     14161     14163
     14158     14161     14164     14162     14161     14163     14162     14161     14164
     14163     14161     14164     14161     14164     14165     14161     14164     14166
     14161     14164     14167     14165     14164     14166     14165     14164     14167
     14166     14164     14167     14169     14168     14170     14169     14168     14171
     14169     14168     14172     14170     14168     14171     14170     14168     14172
     14171     14168     14172     14168     14172     14173     14168     14172     14174
     14168     14172     14175     14173     14172     14174     14173     14172     14175
     14174     14172     14175     14172     14175     14176     14172     14175     14177
     14172     14175     14182     14176     14175     14177     14176     14175     14182
     14177     14175     14182     14179     14178     14180     14179     14178     14181
     14179     14178     14182     14180     14178     14181     14180     14178     14182
     14181     14178     14182     14178     14181     14183     14175     14182     14178
     14181     14183     14184     14181     14183     14185     14181     14183     14186
     14184     14183     14185     14184     14183     14186     14185     14183     14186
     14183     14186     14187     14183     14186     14188     14183     14186     14194
     14187     14186     14188     14187     14186     14194     14188     14186     14194
     14186     14188     14189     14188     14189     14190     14188     14189     14191
     14190     14189     14191     14189     14191     14192     14189     14191     14193
     14189     14191     14203     14192     14191     14193     14192     14191     14203
     14193     14191     14203     14186     14194     14195     14186     14194     14196
     14186     14194     14197     14195     14194     14196     14195     14194     14197
     14196     14194     14197     14194     14197     14198     14197     14198     14199
     14197     14198     14200     14199     14198     14200     14198     14200     14201
     14198     14200     14202     14198     14200     14247     14201     14200     14202
     14201     14200     14247     14202     14200     14247     14191     14203     14204
     14191     14203     14205     14191     14203     14206     14204     14203     14205
     14204     14203     14206     14205     14203     14206     14203     14206     14207
     14203     14206     14208     14203     14206     14209     14207     14206     14208
     14207     14206     14209     14208     14206     14209     14206     14209     14210
     14206     14209     14211     14206     14209     14212     14210     14209     14211
     14210     14209     14212     14211     14209     14212     14209     14212     14213
     14209     14212     14214     14209     14212     14215     14213     14212     14214
     14213     14212     14215     14214     14212     14215     14212     14215     14216
     14212     14215     14217     14212     14215     14218     14216     14215     14217
     14216     14215     14218     14217     14215     14218     14215     14218     14219
     14215     14218     14220     14215     14218     14221     14219     14218     14220
     14219     14218     14221     14220     14218     14221     14218     14221     14222
     14218     14221     14223     14218     14221     14226     14222     14221     14223
     14222     14221     14226     14223     14221     14226     14221     14223     14224
     14221     14223     14225     14221     14223     14226     14224     14223     14225
     14224     14223     14226     14225     14223     14226     14221     14226     14223
     14221     14226     14227     14221     14226     14228     14223     14226     14227
     14223     14226     14228     14227     14226     14228     14226     14228     14229
     14226     14228     14230     14226     14228     14231     14229     14228     14230
     14229     14228     14231     14230     14228     14231     14228     14231     14232
     14228     14231     14233     14228     14231     14234     14232     14231     14233
     14232     14231     14234     14233     14231     14234     14231     14234     14235
     14231     14234     14236     14231     14234     14237     14235     14234     14236
     14235     14234     14237     14236     14234     14237     14234     14237     14238
     14234     14237     14239     14234     14237     14240     14238     14237     14239
     14238     14237     14240     14239     14237     14240     14237     14240     14241
     14237     14240     14242     14237     14240     14243     14241     14240     14242
     14241     14240     14243     14242     14240     14243     14240     14243     14244
     14240     14243     14245     14240     14243     14246     14244     14243     14245
     14244     14243     14246     14245     14243     14246     14200     14247     14248
     14200     14247     14249     14200     14247     14250     14248     14247     14249
     14248     14247     14250     14249     14247     14250     14247     14250     14251
     14247     14250     14252     14247     14250     14253     14251     14250     14252
     14251     14250     14253     14252     14250     14253     14250     14253     14254
     14250     14253     14255     14250     14253     14256     14254     14253     14255
     14254     14253     14256     14255     14253     14256     14253     14256     14257
     14253     14256     14258     14253     14256     14259     14257     14256     14258
     14257     14256     14259     14258     14256     14259     14256     14259     14260
     14256     14259     14261     14256     14259     14262     14260     14259     14261
     14260     14259     14262     14261     14259     14262     14259     14262     14263
     14259     14262     14264     14259     14262     14265     14263     14262     14264
     14263     14262     14265     14264     14262     14265     14262     14265     14266
     14262     14265     14267     14262     14265     14268     14266     14265     14267
     14266     14265     14268     14267     14265     14268     14265     14268     14269
     14265     14268     14270     14265     14268     14271     14269     14268     14270
     14269     14268     14271     14270     14268     14271     14268     14271     14272
     14268     14271     14273     14268     14271     14274     14272     14271     14273
     14272     14271     14274     14273     14271     14274     14271     14274     14275
     14271     14274     14276     14271     14274     14277     14275     14274     14276
     14275     14274     14277     14276     14274     14277     14274     14277     14278
     14274     14277     14279     14274     14277     14280     14278     14277     14279
     14278     14277     14280     14279     14277     14280     14277     14280     14281
     14277     14280     14282     14277     14280     14283     14281     14280     14282
     14281     14280     14283     14282     14280     14283     14280     14283     14284
     14280     14283     14285     14280     14283     14286     14284     14283     14285
     14284     14283     14286     14285     14283     14286     14283     14286     14287
     14283     14286     14288     14283     14286     14289     14287     14286     14288
     14287     14286     14289     14288     14286     14289     14291     14290     14292
     14291     14290     14293     14291     14290     14294     14292     14290     14293
     14292     14290     14294     14293     14290     14294     14290     14294     14295
     14290     14294     14296     14290     14294     14297     14295     14294     14296
     14295     14294     14297     14296     14294     14297     14294     14297     14298
     14294     14297     14299     14294     14297     14304     14298     14297     14299
     14298     14297     14304     14299     14297     14304     14301     14300     14302
     14301     14300     14303     14301     14300     14304     14302     14300     14303
     14302     14300     14304     14303     14300     14304     14300     14303     14305
     14297     14304     14300     14303     14305     14306     14303     14305     14307
     14303     14305     14308     14306     14305     14307     14306     14305     14308
     14307     14305     14308     14305     14308     14309     14305     14308     14310
     14305     14308     14316     14309     14308     14310     14309     14308     14316
     14310     14308     14316     14308     14310     14311     14310     14311     14312
     14310     14311     14313     14312     14311     14313     14311     14313     14314
     14311     14313     14315     14311     14313     14325     14314     14313     14315
     14314     14313     14325     14315     14313     14325     14308     14316     14317
     14308     14316     14318     14308     14316     14319     14317     14316     14318
     14317     14316     14319     14318     14316     14319     14316     14319     14320
     14319     14320     14321     14319     14320     14322     14321     14320     14322
     14320     14322     14323     14320     14322     14324     14320     14322     14372
     14323     14322     14324     14323     14322     14372     14324     14322     14372
     14313     14325     14326     14313     14325     14327     14313     14325     14328
     14326     14325     14327     14326     14325     14328     14327     14325     14328
     14325     14328     14329     14325     14328     14330     14325     14328     14331
     14329     14328     14330     14329     14328     14331     14330     14328     14331
     14328     14331     14332     14328     14331     14333     14328     14331     14334
     14332     14331     14333     14332     14331     14334     14333     14331     14334
     14331     14334     14335     14331     14334     14336     14331     14334     14337
     14335     14334     14336     14335     14334     14337     14336     14334     14337
     14334     14337     14338     14334     14337     14339     14334     14337     14340
     14338     14337     14339     14338     14337     14340     14339     14337     14340
     14337     14340     14341     14337     14340     14342     14337     14340     14343
     14341     14340     14342     14341     14340     14343     14342     14340     14343
     14340     14343     14344     14340     14343     14345     14344     14343     14345
     14343     14345     14346     14343     14345     14347     14346     14345     14347
     14345     14347     14348     14345     14347     14349     14345     14347     14350
     14348     14347     14349     14348     14347     14350     14349     14347     14350
     14347     14350     14351     14347     14350     14352     14347     14350     14353
     14351     14350     14352     14351     14350     14353     14352     14350     14353
     14350     14353     14354     14350     14353     14355     14350     14353     14356
     14354     14353     14355     14354     14353     14356     14355     14353     14356
     14353     14356     14357     14353     14356     14358     14353     14356     14359
     14357     14356     14358     14357     14356     14359     14358     14356     14359
     14356     14359     14360     14356     14359     14361     14356     14359     14362
     14360     14359     14361     14360     14359     14362     14361     14359     14362
     14359     14362     14363     14359     14362     14364     14359     14362     14365
     14363     14362     14364     14363     14362     14365     14364     14362     14365
     14362     14365     14366     14362     14365     14367     14362     14365     14368
     14366     14365     14367     14366     14365     14368     14367     14365     14368
     14365     14368     14369     14365     14368     14370     14365     14368     14371
     14369     14368     14370     14369     14368     14371     14370     14368     14371
     14322     14372     14373     14322     14372     14374     14322     14372     14375
     14373     14372     14374     14373     14372     14375     14374     14372     14375
     14372     14375     14376     14372     14375     14377     14372     14375     14378
     14376     14375     14377     14376     14375     14378     14377     14375     14378
     14375     14378     14379     14375     14378     14380     14375     14378     14381
     14379     14378     14380     14379     14378     14381     14380     14378     14381
     14378     14381     14382     14378     14381     14383     14378     14381     14384
     14382     14381     14383     14382     14381     14384     14383     14381     14384
     14381     14384     14385     14381     14384     14386     14381     14384     14387
     14385     14384     14386     14385     14384     14387     14386     14384     14387
     14384     14387     14388     14384     14387     14389     14384     14387     14390
     14388     14387     14389     14388     14387     14390     14389     14387     14390
     14387     14390     14391     14387     14390     14392     14387     14390     14393
     14391     14390     14392     14391     14390     14393     14392     14390     14393
     14390     14393     14394     14390     14393     14395     14390     14393     14396
     14394     14393     14395     14394     14393     14396     14395     14393     14396
     14393     14396     14397     14393     14396     14398     14393     14396     14399
     14397     14396     14398     14397     14396     14399     14398     14396     14399
     14396     14399     14400     14396     14399     14401     14396     14399     14402
     14400     14399     14401     14400     14399     14402     14401     14399     14402
     14399     14402     14403     14399     14402     14404     14399     14402     14405
     14403     14402     14404     14403     14402     14405     14404     14402     14405
     14402     14405     14406     14402     14405     14407     14402     14405     14408
     14406     14405     14407     14406     14405     14408     14407     14405     14408
     14405     14408     14409     14405     14408     14410     14405     14408     14411
     14409     14408     14410     14409     14408     14411     14410     14408     14411
     14408     14411     14412     14408     14411     14413     14408     14411     14414
     14412     14411     14413     14412     14411     14414     14413     14411     14414
     14416     14415     14417     14416     14415     14418     14416     14415     14420
     14417     14415     14418     14417     14415     14420     14418     14415     14420
     14415     14418     14419     14415     14420     14421     14415     14420     14422
     14415     14420     14424     14421     14420     14422     14421     14420     14424
     14422     14420     14424     14420     14422     14423     14420     14424     14425
     14420     14424     14426     14420     14424     14431     14425     14424     14426
     14425     14424     14431     14426     14424     14431     14428     14427     14429
     14428     14427     14430     14428     14427     14431     14429     14427     14430
     14429     14427     14431     14430     14427     14431     14427     14430     14432
     14424     14431     14427     14430     14432     14433     14430     14432     14434
     14430     14432     14435     14433     14432     14434     14433     14432     14435
     14434     14432     14435     14432     14435     14436     14432     14435     14437
     14432     14435     14443     14436     14435     14437     14436     14435     14443
     14437     14435     14443     14435     14437     14438     14437     14438     14439
     14437     14438     14440     14439     14438     14440     14438     14440     14441
     14438     14440     14442     14438     14440     14452     14441     14440     14442
     14441     14440     14452     14442     14440     14452     14435     14443     14444
     14435     14443     14445     14435     14443     14446     14444     14443     14445
     14444     14443     14446     14445     14443     14446     14443     14446     14447
     14446     14447     14448     14446     14447     14449     14448     14447     14449
     14447     14449     14450     14447     14449     14451     14447     14449     14496
     14450     14449     14451     14450     14449     14496     14451     14449     14496
     14440     14452     14453     14440     14452     14454     14440     14452     14455
     14453     14452     14454     14453     14452     14455     14454     14452     14455
     14452     14455     14456     14452     14455     14457     14452     14455     14458
     14456     14455     14457     14456     14455     14458     14457     14455     14458
     14455     14458     14459     14455     14458     14460     14455     14458     14461
     14459     14458     14460     14459     14458     14461     14460     14458     14461
     14458     14461     14462     14458     14461     14463     14458     14461     14464
     14462     14461     14463     14462     14461     14464     14463     14461     14464
     14461     14464     14465     14461     14464     14466     14461     14464     14467
     14465     14464     14466     14465     14464     14467     14466     14464     14467
     14464     14467     14468     14464     14467     14469     14464     14467     14470
     14468     14467     14469     14468     14467     14470     14469     14467     14470
     14467     14470     14471     14467     14470     14472     14467     14470     14475
     14471     14470     14472     14471     14470     14475     14472     14470     14475
     14470     14472     14473     14470     14472     14474     14470     14472     14475
     14473     14472     14474     14473     14472     14475     14474     14472     14475
     14470     14475     14472     14470     14475     14476     14470     14475     14477
     14472     14475     14476     14472     14475     14477     14476     14475     14477
     14475     14477     14478     14475     14477     14479     14475     14477     14480
     14478     14477     14479     14478     14477     14480     14479     14477     14480
     14477     14480     14481     14477     14480     14482     14477     14480     14483
     14481     14480     14482     14481     14480     14483     14482     14480     14483
     14480     14483     14484     14480     14483     14485     14480     14483     14486
     14484     14483     14485     14484     14483     14486     14485     14483     14486
     14483     14486     14487     14483     14486     14488     14483     14486     14489
     14487     14486     14488     14487     14486     14489     14488     14486     14489
     14486     14489     14490     14486     14489     14491     14486     14489     14492
     14490     14489     14491     14490     14489     14492     14491     14489     14492
     14489     14492     14493     14489     14492     14494     14489     14492     14495
     14493     14492     14494     14493     14492     14495     14494     14492     14495
     14449     14496     14497     14449     14496     14498     14449     14496     14499
     14497     14496     14498     14497     14496     14499     14498     14496     14499
     14496     14499     14500     14496     14499     14501     14496     14499     14502
     14500     14499     14501     14500     14499     14502     14501     14499     14502
     14499     14502     14503     14499     14502     14504     14499     14502     14505
     14503     14502     14504     14503     14502     14505     14504     14502     14505
     14502     14505     14506     14502     14505     14507     14502     14505     14508
     14506     14505     14507     14506     14505     14508     14507     14505     14508
     14505     14508     14509     14505     14508     14510     14505     14508     14511
     14509     14508     14510     14509     14508     14511     14510     14508     14511
     14508     14511     14512     14508     14511     14513     14508     14511     14514
     14512     14511     14513     14512     14511     14514     14513     14511     14514
     14511     14514     14515     14511     14514     14516     14511     14514     14517
     14515     14514     14516     14515     14514     14517     14516     14514     14517
     14514     14517     14518     14514     14517     14519     14514     14517     14520
     14518     14517     14519     14518     14517     14520     14519     14517     14520
     14517     14520     14521     14517     14520     14522     14517     14520     14523
     14521     14520     14522     14521     14520     14523     14522     14520     14523
     14520     14523     14524     14520     14523     14525     14520     14523     14526
     14524     14523     14525     14524     14523     14526     14525     14523     14526
     14523     14526     14527     14523     14526     14528     14523     14526     14529
     14527     14526     14528     14527     14526     14529     14528     14526     14529
     14526     14529     14530     14526     14529     14531     14526     14529     14532
     14530     14529     14531     14530     14529     14532     14531     14529     14532
     14529     14532     14533     14529     14532     14534     14529     14532     14535
     14533     14532     14534     14533     14532     14535     14534     14532     14535
     14532     14535     14536     14532     14535     14537     14532     14535     14538
     14536     14535     14537     14536     14535     14538     14537     14535     14538
     14540     14539     14541     14540     14539     14542     14540     14539     14543
     14541     14539     14542     14541     14539     14543     14542     14539     14543
     14539     14543     14544     14539     14543     14545     14539     14543     14546
     14544     14543     14545     14544     14543     14546     14545     14543     14546
     14543     14546     14547     14543     14546     14548     14543     14546     14553
     14547     14546     14548     14547     14546     14553     14548     14546     14553
     14550     14549     14551     14550     14549     14552     14550     14549     14553
     14551     14549     14552     14551     14549     14553     14552     14549     14553
     14549     14552     14554     14546     14553     14549     14552     14554     14555
     14552     14554     14556     14552     14554     14557     14555     14554     14556
     14555     14554     14557     14556     14554     14557     14554     14557     14558
     14554     14557     14559     14554     14557     14565     14558     14557     14559
     14558     14557     14565     14559     14557     14565     14557     14559     14560
     14559     14560     14561     14559     14560     14562     14561     14560     14562
     14560     14562     14563     14560     14562     14564     14560     14562     14574
     14563     14562     14564     14563     14562     14574     14564     14562     14574
     14557     14565     14566     14557     14565     14567     14557     14565     14568
     14566     14565     14567     14566     14565     14568     14567     14565     14568
     14565     14568     14569     14568     14569     14570     14568     14569     14571
     14570     14569     14571     14569     14571     14572     14569     14571     14573
     14569     14571     14618     14572     14571     14573     14572     14571     14618
     14573     14571     14618     14562     14574     14575     14562     14574     14576
     14562     14574     14577     14575     14574     14576     14575     14574     14577
     14576     14574     14577     14574     14577     14578     14574     14577     14579
     14574     14577     14580     14578     14577     14579     14578     14577     14580
     14579     14577     14580     14577     14580     14581     14577     14580     14582
     14577     14580     14583     14581     14580     14582     14581     14580     14583
     14582     14580     14583     14580     14583     14584     14580     14583     14585
     14580     14583     14586     14584     14583     14585     14584     14583     14586
     14585     14583     14586     14583     14586     14587     14583     14586     14588
     14583     14586     14589     14587     14586     14588     14587     14586     14589
     14588     14586     14589     14586     14589     14590     14586     14589     14591
     14586     14589     14592     14590     14589     14591     14590     14589     14592
     14591     14589     14592     14589     14592     14593     14589     14592     14594
     14589     14592     14597     14593     14592     14594     14593     14592     14597
     14594     14592     14597     14592     14594     14595     14592     14594     14596
     14592     14594     14597     14595     14594     14596     14595     14594     14597
     14596     14594     14597     14592     14597     14594     14592     14597     14598
     14592     14597     14599     14594     14597     14598     14594     14597     14599
     14598     14597     14599     14597     14599     14600     14597     14599     14601
     14597     14599     14602     14600     14599     14601     14600     14599     14602
     14601     14599     14602     14599     14602     14603     14599     14602     14604
     14599     14602     14605     14603     14602     14604     14603     14602     14605
     14604     14602     14605     14602     14605     14606     14602     14605     14607
     14602     14605     14608     14606     14605     14607     14606     14605     14608
     14607     14605     14608     14605     14608     14609     14605     14608     14610
     14605     14608     14611     14609     14608     14610     14609     14608     14611
     14610     14608     14611     14608     14611     14612     14608     14611     14613
     14608     14611     14614     14612     14611     14613     14612     14611     14614
     14613     14611     14614     14611     14614     14615     14611     14614     14616
     14611     14614     14617     14615     14614     14616     14615     14614     14617
     14616     14614     14617     14571     14618     14619     14571     14618     14620
     14571     14618     14621     14619     14618     14620     14619     14618     14621
     14620     14618     14621     14618     14621     14622     14618     14621     14623
     14618     14621     14624     14622     14621     14623     14622     14621     14624
     14623     14621     14624     14621     14624     14625     14621     14624     14626
     14621     14624     14627     14625     14624     14626     14625     14624     14627
     14626     14624     14627     14624     14627     14628     14624     14627     14629
     14624     14627     14630     14628     14627     14629     14628     14627     14630
     14629     14627     14630     14627     14630     14631     14627     14630     14632
     14627     14630     14633     14631     14630     14632     14631     14630     14633
     14632     14630     14633     14630     14633     14634     14630     14633     14635
     14630     14633     14636     14634     14633     14635     14634     14633     14636
     14635     14633     14636     14633     14636     14637     14633     14636     14638
     14633     14636     14639     14637     14636     14638     14637     14636     14639
     14638     14636     14639     14636     14639     14640     14636     14639     14641
     14636     14639     14642     14640     14639     14641     14640     14639     14642
     14641     14639     14642     14639     14642     14643     14639     14642     14644
     14639     14642     14645     14643     14642     14644     14643     14642     14645
     14644     14642     14645     14642     14645     14646     14642     14645     14647
     14642     14645     14648     14646     14645     14647     14646     14645     14648
     14647     14645     14648     14645     14648     14649     14645     14648     14650
     14645     14648     14651     14649     14648     14650     14649     14648     14651
     14650     14648     14651     14648     14651     14652     14648     14651     14653
     14648     14651     14654     14652     14651     14653     14652     14651     14654
     14653     14651     14654     14651     14654     14655     14651     14654     14656
     14651     14654     14657     14655     14654     14656     14655     14654     14657
     14656     14654     14657     14654     14657     14658     14654     14657     14659
     14654     14657     14660     14658     14657     14659     14658     14657     14660
     14659     14657     14660     14662     14661     14663     14662     14661     14664
     14662     14661     14665     14663     14661     14664     14663     14661     14665
     14664     14661     14665     14661     14665     14666     14661     14665     14667
     14661     14665     14668     14666     14665     14667     14666     14665     14668
     14667     14665     14668     14665     14668     14669     14665     14668     14670
     14665     14668     14675     14669     14668     14670     14669     14668     14675
     14670     14668     14675     14672     14671     14673     14672     14671     14674
     14672     14671     14675     14673     14671     14674     14673     14671     14675
     14674     14671     14675     14671     14674     14676     14668     14675     14671
     14674     14676     14677     14674     14676     14678     14674     14676     14679
     14677     14676     14678     14677     14676     14679     14678     14676     14679
     14676     14679     14680     14676     14679     14681     14676     14679     14687
     14680     14679     14681     14680     14679     14687     14681     14679     14687
     14679     14681     14682     14681     14682     14683     14681     14682     14684
     14683     14682     14684     14682     14684     14685     14682     14684     14686
     14682     14684     14696     14685     14684     14686     14685     14684     14696
     14686     14684     14696     14679     14687     14688     14679     14687     14689
     14679     14687     14690     14688     14687     14689     14688     14687     14690
     14689     14687     14690     14687     14690     14691     14690     14691     14692
     14690     14691     14693     14692     14691     14693     14691     14693     14694
     14691     14693     14695     14691     14693     14740     14694     14693     14695
     14694     14693     14740     14695     14693     14740     14684     14696     14697
     14684     14696     14698     14684     14696     14699     14697     14696     14698
     14697     14696     14699     14698     14696     14699     14696     14699     14700
     14696     14699     14701     14696     14699     14702     14700     14699     14701
     14700     14699     14702     14701     14699     14702     14699     14702     14703
     14699     14702     14704     14699     14702     14705     14703     14702     14704
     14703     14702     14705     14704     14702     14705     14702     14705     14706
     14702     14705     14707     14702     14705     14708     14706     14705     14707
     14706     14705     14708     14707     14705     14708     14705     14708     14709
     14705     14708     14710     14705     14708     14711     14709     14708     14710
     14709     14708     14711     14710     14708     14711     14708     14711     14712
     14708     14711     14713     14708     14711     14714     14712     14711     14713
     14712     14711     14714     14713     14711     14714     14711     14714     14715
     14711     14714     14716     14711     14714     14719     14715     14714     14716
     14715     14714     14719     14716     14714     14719     14714     14716     14717
     14714     14716     14718     14714     14716     14719     14717     14716     14718
     14717     14716     14719     14718     14716     14719     14714     14719     14716
     14714     14719     14720     14714     14719     14721     14716     14719     14720
     14716     14719     14721     14720     14719     14721     14719     14721     14722
     14719     14721     14723     14719     14721     14724     14722     14721     14723
     14722     14721     14724     14723     14721     14724     14721     14724     14725
     14721     14724     14726     14721     14724     14727     14725     14724     14726
     14725     14724     14727     14726     14724     14727     14724     14727     14728
     14724     14727     14729     14724     14727     14730     14728     14727     14729
     14728     14727     14730     14729     14727     14730     14727     14730     14731
     14727     14730     14732     14727     14730     14733     14731     14730     14732
     14731     14730     14733     14732     14730     14733     14730     14733     14734
     14730     14733     14735     14730     14733     14736     14734     14733     14735
     14734     14733     14736     14735     14733     14736     14733     14736     14737
     14733     14736     14738     14733     14736     14739     14737     14736     14738
     14737     14736     14739     14738     14736     14739     14693     14740     14741
     14693     14740     14742     14693     14740     14743     14741     14740     14742
     14741     14740     14743     14742     14740     14743     14740     14743     14744
     14740     14743     14745     14740     14743     14746     14744     14743     14745
     14744     14743     14746     14745     14743     14746     14743     14746     14747
     14743     14746     14748     14743     14746     14749     14747     14746     14748
     14747     14746     14749     14748     14746     14749     14746     14749     14750
     14746     14749     14751     14746     14749     14752     14750     14749     14751
     14750     14749     14752     14751     14749     14752     14749     14752     14753
     14749     14752     14754     14749     14752     14755     14753     14752     14754
     14753     14752     14755     14754     14752     14755     14752     14755     14756
     14752     14755     14757     14752     14755     14758     14756     14755     14757
     14756     14755     14758     14757     14755     14758     14755     14758     14759
     14755     14758     14760     14755     14758     14761     14759     14758     14760
     14759     14758     14761     14760     14758     14761     14758     14761     14762
     14758     14761     14763     14758     14761     14764     14762     14761     14763
     14762     14761     14764     14763     14761     14764     14761     14764     14765
     14761     14764     14766     14761     14764     14767     14765     14764     14766
     14765     14764     14767     14766     14764     14767     14764     14767     14768
     14764     14767     14769     14764     14767     14770     14768     14767     14769
     14768     14767     14770     14769     14767     14770     14767     14770     14771
     14767     14770     14772     14767     14770     14773     14771     14770     14772
     14771     14770     14773     14772     14770     14773     14770     14773     14774
     14770     14773     14775     14770     14773     14776     14774     14773     14775
     14774     14773     14776     14775     14773     14776     14773     14776     14777
     14773     14776     14778     14773     14776     14779     14777     14776     14778
     14777     14776     14779     14778     14776     14779     14776     14779     14780
     14776     14779     14781     14776     14779     14782     14780     14779     14781
     14780     14779     14782     14781     14779     14782     14784     14783     14785
     14784     14783     14786     14784     14783     14787     14785     14783     14786
     14785     14783     14787     14786     14783     14787     14783     14787     14788
     14783     14787     14789     14783     14787     14790     14788     14787     14789
     14788     14787     14790     14789     14787     14790     14787     14790     14791
     14787     14790     14792     14787     14790     14797     14791     14790     14792
     14791     14790     14797     14792     14790     14797     14794     14793     14795
     14794     14793     14796     14794     14793     14797     14795     14793     14796
     14795     14793     14797     14796     14793     14797     14793     14796     14798
     14790     14797     14793     14796     14798     14799     14796     14798     14800
     14796     14798     14801     14799     14798     14800     14799     14798     14801
     14800     14798     14801     14798     14801     14802     14798     14801     14803
     14798     14801     14809     14802     14801     14803     14802     14801     14809
     14803     14801     14809     14801     14803     14804     14803     14804     14805
     14803     14804     14806     14805     14804     14806     14804     14806     14807
     14804     14806     14808     14804     14806     14818     14807     14806     14808
     14807     14806     14818     14808     14806     14818     14801     14809     14810
     14801     14809     14811     14801     14809     14812     14810     14809     14811
     14810     14809     14812     14811     14809     14812     14809     14812     14813
     14812     14813     14814     14812     14813     14815     14814     14813     14815
     14813     14815     14816     14813     14815     14817     14813     14815     14862
     14816     14815     14817     14816     14815     14862     14817     14815     14862
     14806     14818     14819     14806     14818     14820     14806     14818     14821
     14819     14818     14820     14819     14818     14821     14820     14818     14821
     14818     14821     14822     14818     14821     14823     14818     14821     14824
     14822     14821     14823     14822     14821     14824     14823     14821     14824
     14821     14824     14825     14821     14824     14826     14821     14824     14827
     14825     14824     14826     14825     14824     14827     14826     14824     14827
     14824     14827     14828     14824     14827     14829     14824     14827     14830
     14828     14827     14829     14828     14827     14830     14829     14827     14830
     14827     14830     14831     14827     14830     14832     14827     14830     14833
     14831     14830     14832     14831     14830     14833     14832     14830     14833
     14830     14833     14834     14830     14833     14835     14830     14833     14836
     14834     14833     14835     14834     14833     14836     14835     14833     14836
     14833     14836     14837     14833     14836     14838     14833     14836     14841
     14837     14836     14838     14837     14836     14841     14838     14836     14841
     14836     14838     14839     14836     14838     14840     14836     14838     14841
     14839     14838     14840     14839     14838     14841     14840     14838     14841
     14836     14841     14838     14836     14841     14842     14836     14841     14843
     14838     14841     14842     14838     14841     14843     14842     14841     14843
     14841     14843     14844     14841     14843     14845     14841     14843     14846
     14844     14843     14845     14844     14843     14846     14845     14843     14846
     14843     14846     14847     14843     14846     14848     14843     14846     14849
     14847     14846     14848     14847     14846     14849     14848     14846     14849
     14846     14849     14850     14846     14849     14851     14846     14849     14852
     14850     14849     14851     14850     14849     14852     14851     14849     14852
     14849     14852     14853     14849     14852     14854     14849     14852     14855
     14853     14852     14854     14853     14852     14855     14854     14852     14855
     14852     14855     14856     14852     14855     14857     14852     14855     14858
     14856     14855     14857     14856     14855     14858     14857     14855     14858
     14855     14858     14859     14855     14858     14860     14855     14858     14861
     14859     14858     14860     14859     14858     14861     14860     14858     14861
     14815     14862     14863     14815     14862     14864     14815     14862     14865
     14863     14862     14864     14863     14862     14865     14864     14862     14865
     14862     14865     14866     14862     14865     14867     14862     14865     14868
     14866     14865     14867     14866     14865     14868     14867     14865     14868
     14865     14868     14869     14865     14868     14870     14865     14868     14871
     14869     14868     14870     14869     14868     14871     14870     14868     14871
     14868     14871     14872     14868     14871     14873     14868     14871     14874
     14872     14871     14873     14872     14871     14874     14873     14871     14874
     14871     14874     14875     14871     14874     14876     14871     14874     14877
     14875     14874     14876     14875     14874     14877     14876     14874     14877
     14874     14877     14878     14874     14877     14879     14874     14877     14880
     14878     14877     14879     14878     14877     14880     14879     14877     14880
     14877     14880     14881     14877     14880     14882     14877     14880     14883
     14881     14880     14882     14881     14880     14883     14882     14880     14883
     14880     14883     14884     14880     14883     14885     14880     14883     14886
     14884     14883     14885     14884     14883     14886     14885     14883     14886
     14883     14886     14887     14883     14886     14888     14883     14886     14889
     14887     14886     14888     14887     14886     14889     14888     14886     14889
     14886     14889     14890     14886     14889     14891     14886     14889     14892
     14890     14889     14891     14890     14889     14892     14891     14889     14892
     14889     14892     14893     14889     14892     14894     14889     14892     14895
     14893     14892     14894     14893     14892     14895     14894     14892     14895
     14892     14895     14896     14892     14895     14897     14892     14895     14898
     14896     14895     14897     14896     14895     14898     14897     14895     14898
     14895     14898     14899     14895     14898     14900     14895     14898     14901
     14899     14898     14900     14899     14898     14901     14900     14898     14901
     14898     14901     14902     14898     14901     14903     14898     14901     14904
     14902     14901     14903     14902     14901     14904     14903     14901     14904
     14906     14905     14907     14906     14905     14908     14906     14905     14909
     14907     14905     14908     14907     14905     14909     14908     14905     14909
     14905     14909     14910     14905     14909     14911     14905     14909     14912
     14910     14909     14911     14910     14909     14912     14911     14909     14912
     14909     14912     14913     14909     14912     14914     14909     14912     14919
     14913     14912     14914     14913     14912     14919     14914     14912     14919
     14916     14915     14917     14916     14915     14918     14916     14915     14919
     14917     14915     14918     14917     14915     14919     14918     14915     14919
     14915     14918     14920     14912     14919     14915     14918     14920     14921
     14918     14920     14922     14918     14920     14923     14921     14920     14922
     14921     14920     14923     14922     14920     14923     14920     14923     14924
     14920     14923     14925     14920     14923     14931     14924     14923     14925
     14924     14923     14931     14925     14923     14931     14923     14925     14926
     14925     14926     14927     14925     14926     14928     14927     14926     14928
     14926     14928     14929     14926     14928     14930     14926     14928     14940
     14929     14928     14930     14929     14928     14940     14930     14928     14940
     14923     14931     14932     14923     14931     14933     14923     14931     14934
     14932     14931     14933     14932     14931     14934     14933     14931     14934
     14931     14934     14935     14934     14935     14936     14934     14935     14937
     14936     14935     14937     14935     14937     14938     14935     14937     14939
     14935     14937     14981     14938     14937     14939     14938     14937     14981
     14939     14937     14981     14928     14940     14941     14928     14940     14942
     14928     14940     14943     14941     14940     14942     14941     14940     14943
     14942     14940     14943     14940     14943     14944     14940     14943     14945
     14940     14943     14946     14944     14943     14945     14944     14943     14946
     14945     14943     14946     14943     14946     14947     14943     14946     14948
     14943     14946     14949     14947     14946     14948     14947     14946     14949
     14948     14946     14949     14946     14949     14950     14946     14949     14951
     14946     14949     14952     14950     14949     14951     14950     14949     14952
     14951     14949     14952     14949     14952     14953     14949     14952     14954
     14949     14952     14955     14953     14952     14954     14953     14952     14955
     14954     14952     14955     14952     14955     14956     14952     14955     14957
     14952     14955     14958     14956     14955     14957     14956     14955     14958
     14957     14955     14958     14955     14958     14959     14955     14958     14960
     14959     14958     14960     14958     14960     14961     14958     14960     14962
     14961     14960     14962     14960     14962     14963     14960     14962     14964
     14960     14962     14965     14963     14962     14964     14963     14962     14965
     14964     14962     14965     14962     14965     14966     14962     14965     14967
     14962     14965     14968     14966     14965     14967     14966     14965     14968
     14967     14965     14968     14965     14968     14969     14965     14968     14970
     14965     14968     14971     14969     14968     14970     14969     14968     14971
     14970     14968     14971     14968     14971     14972     14968     14971     14973
     14968     14971     14974     14972     14971     14973     14972     14971     14974
     14973     14971     14974     14971     14974     14975     14971     14974     14976
     14971     14974     14977     14975     14974     14976     14975     14974     14977
     14976     14974     14977     14974     14977     14978     14974     14977     14979
     14974     14977     14980     14978     14977     14979     14978     14977     14980
     14979     14977     14980     14937     14981     14982     14937     14981     14983
     14937     14981     14984     14982     14981     14983     14982     14981     14984
     14983     14981     14984     14981     14984     14985     14981     14984     14986
     14981     14984     14987     14985     14984     14986     14985     14984     14987
     14986     14984     14987     14984     14987     14988     14984     14987     14989
     14984     14987     14990     14988     14987     14989     14988     14987     14990
     14989     14987     14990     14987     14990     14991     14987     14990     14992
     14987     14990     14993     14991     14990     14992     14991     14990     14993
     14992     14990     14993     14990     14993     14994     14990     14993     14995
     14990     14993     14996     14994     14993     14995     14994     14993     14996
     14995     14993     14996     14993     14996     14997     14993     14996     14998
     14993     14996     14999     14997     14996     14998     14997     14996     14999
     14998     14996     14999     14996     14999     15000     14996     14999     15001
     15000     14999     15001     14999     15001     15002     14999     15001     15003
     15002     15001     15003     15001     15003     15004     15001     15003     15005
     15001     15003     15006     15004     15003     15005     15004     15003     15006
     15005     15003     15006     15003     15006     15007     15003     15006     15008
     15003     15006     15009     15007     15006     15008     15007     15006     15009
     15008     15006     15009     15006     15009     15010     15006     15009     15011
     15006     15009     15012     15010     15009     15011     15010     15009     15012
     15011     15009     15012     15009     15012     15013     15009     15012     15014
     15009     15012     15015     15013     15012     15014     15013     15012     15015
     15014     15012     15015     15012     15015     15016     15012     15015     15017
     15012     15015     15018     15016     15015     15017     15016     15015     15018
     15017     15015     15018     15015     15018     15019     15015     15018     15020
     15015     15018     15021     15019     15018     15020     15019     15018     15021
     15020     15018     15021     15018     15021     15022     15018     15021     15023
     15018     15021     15024     15022     15021     15023     15022     15021     15024
     15023     15021     15024     15021     15024     15025     15021     15024     15026
     15021     15024     15027     15025     15024     15026     15025     15024     15027
     15026     15024     15027     15029     15028     15030     15029     15028     15034
     15029     15028     15039     15030     15028     15034     15030     15028     15039
     15034     15028     15039     15032     15031     15033     15032     15031     15034
     15032     15031     15035     15033     15031     15034     15033     15031     15035
     15034     15031     15035     15028     15034     15031     15031     15035     15036
     15035     15036     15037     15035     15036     15038     15035     15036     15071
     15037     15036     15038     15037     15036     15071     15038     15036     15071
     15028     15039     15040     15028     15039     15041     15028     15039     15043
     15040     15039     15041     15040     15039     15043     15041     15039     15043
     15039     15041     15042     15039     15043     15044     15039     15043     15045
     15039     15043     15049     15044     15043     15045     15044     15043     15049
     15045     15043     15049     15047     15046     15048     15047     15046     15049
     15047     15046     15050     15048     15046     15049     15048     15046     15050
     15049     15046     15050     15043     15049     15046     15046     15050     15051
     15050     15051     15052     15050     15051     15053     15050     15051     15054
     15052     15051     15053     15052     15051     15054     15053     15051     15054
     15051     15054     15055     15051     15054     15056     15051     15054     15062
     15055     15054     15056     15055     15054     15062     15056     15054     15062
     15054     15056     15057     15056     15057     15058     15056     15057     15059
     15058     15057     15059     15057     15059     15060     15057     15059     15061
     15057     15059     15088     15060     15059     15061     15060     15059     15088
     15061     15059     15088     15054     15062     15063     15054     15062     15064
     15054     15062     15065     15063     15062     15064     15063     15062     15065
     15064     15062     15065     15062     15065     15066     15065     15066     15067
     15065     15066     15068     15067     15066     15068     15066     15068     15069
     15066     15068     15070     15066     15068     15135     15069     15068     15070
     15069     15068     15135     15070     15068     15135     15036     15071     15072
     15036     15071     15073     15036     15071     15079     15072     15071     15073
     15072     15071     15079     15073     15071     15079     15071     15073     15074
     15073     15074     15075     15073     15074     15076     15075     15074     15076
     15074     15076     15077     15074     15076     15078     15074     15076     15178
     15077     15076     15078     15077     15076     15178     15078     15076     15178
     15071     15079     15080     15071     15079     15081     15071     15079     15082
     15080     15079     15081     15080     15079     15082     15081     15079     15082
     15079     15082     15083     15082     15083     15084     15082     15083     15085
     15084     15083     15085     15083     15085     15086     15083     15085     15087
     15083     15085     15225     15086     15085     15087     15086     15085     15225
     15087     15085     15225     15059     15088     15089     15059     15088     15090
     15059     15088     15091     15089     15088     15090     15089     15088     15091
     15090     15088     15091     15088     15091     15092     15088     15091     15093
     15088     15091     15094     15092     15091     15093     15092     15091     15094
     15093     15091     15094     15091     15094     15095     15091     15094     15096
     15091     15094     15097     15095     15094     15096     15095     15094     15097
     15096     15094     15097     15094     15097     15098     15094     15097     15099
     15094     15097     15100     15098     15097     15099     15098     15097     15100
     15099     15097     15100     15097     15100     15101     15097     15100     15102
     15097     15100     15103     15101     15100     15102     15101     15100     15103
     15102     15100     15103     15100     15103     15104     15100     15103     15105
     15100     15103     15106     15104     15103     15105     15104     15103     15106
     15105     15103     15106     15103     15106     15107     15103     15106     15108
     15103     15106     15109     15107     15106     15108     15107     15106     15109
     15108     15106     15109     15106     15109     15110     15106     15109     15111
     15106     15109     15112     15110     15109     15111     15110     15109     15112
     15111     15109     15112     15109     15112     15113     15109     15112     15114
     15113     15112     15114     15112     15114     15115     15112     15114     15116
     15115     15114     15116     15114     15116     15117     15114     15116     15118
     15114     15116     15119     15117     15116     15118     15117     15116     15119
     15118     15116     15119     15116     15119     15120     15116     15119     15121
     15116     15119     15122     15120     15119     15121     15120     15119     15122
     15121     15119     15122     15119     15122     15123     15119     15122     15124
     15119     15122     15125     15123     15122     15124     15123     15122     15125
     15124     15122     15125     15122     15125     15126     15122     15125     15127
     15122     15125     15128     15126     15125     15127     15126     15125     15128
     15127     15125     15128     15125     15128     15129     15125     15128     15130
     15125     15128     15131     15129     15128     15130     15129     15128     15131
     15130     15128     15131     15128     15131     15132     15128     15131     15133
     15128     15131     15134     15132     15131     15133     15132     15131     15134
     15133     15131     15134     15068     15135     15136     15068     15135     15137
     15068     15135     15138     15136     15135     15137     15136     15135     15138
     15137     15135     15138     15135     15138     15139     15135     15138     15140
     15135     15138     15141     15139     15138     15140     15139     15138     15141
     15140     15138     15141     15138     15141     15142     15138     15141     15143
     15138     15141     15144     15142     15141     15143     15142     15141     15144
     15143     15141     15144     15141     15144     15145     15141     15144     15146
     15141     15144     15147     15145     15144     15146     15145     15144     15147
     15146     15144     15147     15144     15147     15148     15144     15147     15149
     15144     15147     15150     15148     15147     15149     15148     15147     15150
     15149     15147     15150     15147     15150     15151     15147     15150     15152
     15147     15150     15153     15151     15150     15152     15151     15150     15153
     15152     15150     15153     15150     15153     15154     15150     15153     15155
     15150     15153     15156     15154     15153     15155     15154     15153     15156
     15155     15153     15156     15153     15156     15157     15153     15156     15158
     15153     15156     15159     15157     15156     15158     15157     15156     15159
     15158     15156     15159     15156     15159     15160     15156     15159     15161
     15156     15159     15162     15160     15159     15161     15160     15159     15162
     15161     15159     15162     15159     15162     15163     15159     15162     15164
     15159     15162     15165     15163     15162     15164     15163     15162     15165
     15164     15162     15165     15162     15165     15166     15162     15165     15167
     15162     15165     15168     15166     15165     15167     15166     15165     15168
     15167     15165     15168     15165     15168     15169     15165     15168     15170
     15165     15168     15171     15169     15168     15170     15169     15168     15171
     15170     15168     15171     15168     15171     15172     15168     15171     15173
     15168     15171     15174     15172     15171     15173     15172     15171     15174
     15173     15171     15174     15171     15174     15175     15171     15174     15176
     15171     15174     15177     15175     15174     15176     15175     15174     15177
     15176     15174     15177     15076     15178     15179     15076     15178     15180
     15076     15178     15181     15179     15178     15180     15179     15178     15181
     15180     15178     15181     15178     15181     15182     15178     15181     15183
     15178     15181     15184     15182     15181     15183     15182     15181     15184
     15183     15181     15184     15181     15184     15185     15181     15184     15186
     15181     15184     15187     15185     15184     15186     15185     15184     15187
     15186     15184     15187     15184     15187     15188     15184     15187     15189
     15184     15187     15190     15188     15187     15189     15188     15187     15190
     15189     15187     15190     15187     15190     15191     15187     15190     15192
     15187     15190     15193     15191     15190     15192     15191     15190     15193
     15192     15190     15193     15190     15193     15194     15190     15193     15195
     15190     15193     15196     15194     15193     15195     15194     15193     15196
     15195     15193     15196     15193     15196     15197     15193     15196     15198
     15193     15196     15199     15197     15196     15198     15197     15196     15199
     15198     15196     15199     15196     15199     15200     15196     15199     15201
     15196     15199     15202     15200     15199     15201     15200     15199     15202
     15201     15199     15202     15199     15202     15203     15199     15202     15204
     15203     15202     15204     15202     15204     15205     15202     15204     15206
     15205     15204     15206     15204     15206     15207     15204     15206     15208
     15204     15206     15209     15207     15206     15208     15207     15206     15209
     15208     15206     15209     15206     15209     15210     15206     15209     15211
     15206     15209     15212     15210     15209     15211     15210     15209     15212
     15211     15209     15212     15209     15212     15213     15209     15212     15214
     15209     15212     15215     15213     15212     15214     15213     15212     15215
     15214     15212     15215     15212     15215     15216     15212     15215     15217
     15212     15215     15218     15216     15215     15217     15216     15215     15218
     15217     15215     15218     15215     15218     15219     15215     15218     15220
     15215     15218     15221     15219     15218     15220     15219     15218     15221
     15220     15218     15221     15218     15221     15222     15218     15221     15223
     15218     15221     15224     15222     15221     15223     15222     15221     15224
     15223     15221     15224     15085     15225     15226     15085     15225     15227
     15085     15225     15228     15226     15225     15227     15226     15225     15228
     15227     15225     15228     15225     15228     15229     15225     15228     15230
     15225     15228     15231     15229     15228     15230     15229     15228     15231
     15230     15228     15231     15228     15231     15232     15228     15231     15233
     15228     15231     15234     15232     15231     15233     15232     15231     15234
     15233     15231     15234     15231     15234     15235     15231     15234     15236
     15231     15234     15237     15235     15234     15236     15235     15234     15237
     15236     15234     15237     15234     15237     15238     15234     15237     15239
     15234     15237     15240     15238     15237     15239     15238     15237     15240
     15239     15237     15240     15237     15240     15241     15237     15240     15242
     15237     15240     15243     15241     15240     15242     15241     15240     15243
     15242     15240     15243     15240     15243     15244     15240     15243     15245
     15240     15243     15246     15244     15243     15245     15244     15243     15246
     15245     15243     15246     15243     15246     15247     15243     15246     15248
     15243     15246     15249     15247     15246     15248     15247     15246     15249
     15248     15246     15249     15246     15249     15250     15246     15249     15251
     15246     15249     15252     15250     15249     15251     15250     15249     15252
     15251     15249     15252     15249     15252     15253     15249     15252     15254
     15249     15252     15255     15253     15252     15254     15253     15252     15255
     15254     15252     15255     15252     15255     15256     15252     15255     15257
     15252     15255     15258     15256     15255     15257     15256     15255     15258
     15257     15255     15258     15255     15258     15259     15255     15258     15260
     15255     15258     15261     15259     15258     15260     15259     15258     15261
     15260     15258     15261     15258     15261     15262     15258     15261     15263
     15258     15261     15264     15262     15261     15263     15262     15261     15264
     15263     15261     15264     15261     15264     15265     15261     15264     15266
     15261     15264     15267     15265     15264     15266     15265     15264     15267
     15266     15264     15267     15269     15268     15270     15269     15268     15271
     15269     15268     15272     15270     15268     15271     15270     15268     15272
     15271     15268     15272     15268     15272     15273     15268     15272     15274
     15268     15272     15275     15273     15272     15274     15273     15272     15275
     15274     15272     15275     15272     15275     15276     15272     15275     15277
     15272     15275     15282     15276     15275     15277     15276     15275     15282
     15277     15275     15282     15279     15278     15280     15279     15278     15281
     15279     15278     15282     15280     15278     15281     15280     15278     15282
     15281     15278     15282     15278     15281     15283     15275     15282     15278
     15281     15283     15284     15281     15283     15285     15281     15283     15286
     15284     15283     15285     15284     15283     15286     15285     15283     15286
     15283     15286     15287     15283     15286     15288     15283     15286     15294
     15287     15286     15288     15287     15286     15294     15288     15286     15294
     15286     15288     15289     15288     15289     15290     15288     15289     15291
     15290     15289     15291     15289     15291     15292     15289     15291     15293
     15289     15291     15303     15292     15291     15293     15292     15291     15303
     15293     15291     15303     15286     15294     15295     15286     15294     15296
     15286     15294     15297     15295     15294     15296     15295     15294     15297
     15296     15294     15297     15294     15297     15298     15297     15298     15299
     15297     15298     15300     15299     15298     15300     15298     15300     15301
     15298     15300     15302     15298     15300     15347     15301     15300     15302
     15301     15300     15347     15302     15300     15347     15291     15303     15304
     15291     15303     15305     15291     15303     15306     15304     15303     15305
     15304     15303     15306     15305     15303     15306     15303     15306     15307
     15303     15306     15308     15303     15306     15309     15307     15306     15308
     15307     15306     15309     15308     15306     15309     15306     15309     15310
     15306     15309     15311     15306     15309     15312     15310     15309     15311
     15310     15309     15312     15311     15309     15312     15309     15312     15313
     15309     15312     15314     15309     15312     15315     15313     15312     15314
     15313     15312     15315     15314     15312     15315     15312     15315     15316
     15312     15315     15317     15312     15315     15318     15316     15315     15317
     15316     15315     15318     15317     15315     15318     15315     15318     15319
     15315     15318     15320     15315     15318     15321     15319     15318     15320
     15319     15318     15321     15320     15318     15321     15318     15321     15322
     15318     15321     15323     15318     15321     15326     15322     15321     15323
     15322     15321     15326     15323     15321     15326     15321     15323     15324
     15321     15323     15325     15321     15323     15326     15324     15323     15325
     15324     15323     15326     15325     15323     15326     15321     15326     15323
     15321     15326     15327     15321     15326     15328     15323     15326     15327
     15323     15326     15328     15327     15326     15328     15326     15328     15329
     15326     15328     15330     15326     15328     15331     15329     15328     15330
     15329     15328     15331     15330     15328     15331     15328     15331     15332
     15328     15331     15333     15328     15331     15334     15332     15331     15333
     15332     15331     15334     15333     15331     15334     15331     15334     15335
     15331     15334     15336     15331     15334     15337     15335     15334     15336
     15335     15334     15337     15336     15334     15337     15334     15337     15338
     15334     15337     15339     15334     15337     15340     15338     15337     15339
     15338     15337     15340     15339     15337     15340     15337     15340     15341
     15337     15340     15342     15337     15340     15343     15341     15340     15342
     15341     15340     15343     15342     15340     15343     15340     15343     15344
     15340     15343     15345     15340     15343     15346     15344     15343     15345
     15344     15343     15346     15345     15343     15346     15300     15347     15348
     15300     15347     15349     15300     15347     15350     15348     15347     15349
     15348     15347     15350     15349     15347     15350     15347     15350     15351
     15347     15350     15352     15347     15350     15353     15351     15350     15352
     15351     15350     15353     15352     15350     15353     15350     15353     15354
     15350     15353     15355     15350     15353     15356     15354     15353     15355
     15354     15353     15356     15355     15353     15356     15353     15356     15357
     15353     15356     15358     15353     15356     15359     15357     15356     15358
     15357     15356     15359     15358     15356     15359     15356     15359     15360
     15356     15359     15361     15356     15359     15362     15360     15359     15361
     15360     15359     15362     15361     15359     15362     15359     15362     15363
     15359     15362     15364     15359     15362     15365     15363     15362     15364
     15363     15362     15365     15364     15362     15365     15362     15365     15366
     15362     15365     15367     15362     15365     15368     15366     15365     15367
     15366     15365     15368     15367     15365     15368     15365     15368     15369
     15365     15368     15370     15365     15368     15371     15369     15368     15370
     15369     15368     15371     15370     15368     15371     15368     15371     15372
     15368     15371     15373     15368     15371     15374     15372     15371     15373
     15372     15371     15374     15373     15371     15374     15371     15374     15375
     15371     15374     15376     15371     15374     15377     15375     15374     15376
     15375     15374     15377     15376     15374     15377     15374     15377     15378
     15374     15377     15379     15374     15377     15380     15378     15377     15379
     15378     15377     15380     15379     15377     15380     15377     15380     15381
     15377     15380     15382     15377     15380     15383     15381     15380     15382
     15381     15380     15383     15382     15380     15383     15380     15383     15384
     15380     15383     15385     15380     15383     15386     15384     15383     15385
     15384     15383     15386     15385     15383     15386     15383     15386     15387
     15383     15386     15388     15383     15386     15389     15387     15386     15388
     15387     15386     15389     15388     15386     15389     15391     15390     15392
     15391     15390     15393     15391     15390     15394     15392     15390     15393
     15392     15390     15394     15393     15390     15394     15390     15394     15395
     15390     15394     15396     15390     15394     15397     15395     15394     15396
     15395     15394     15397     15396     15394     15397     15394     15397     15398
     15394     15397     15399     15394     15397     15404     15398     15397     15399
     15398     15397     15404     15399     15397     15404     15401     15400     15402
     15401     15400     15403     15401     15400     15404     15402     15400     15403
     15402     15400     15404     15403     15400     15404     15400     15403     15405
     15397     15404     15400     15403     15405     15406     15403     15405     15407
     15403     15405     15408     15406     15405     15407     15406     15405     15408
     15407     15405     15408     15405     15408     15409     15405     15408     15410
     15405     15408     15416     15409     15408     15410     15409     15408     15416
     15410     15408     15416     15408     15410     15411     15410     15411     15412
     15410     15411     15413     15412     15411     15413     15411     15413     15414
     15411     15413     15415     15411     15413     15425     15414     15413     15415
     15414     15413     15425     15415     15413     15425     15408     15416     15417
     15408     15416     15418     15408     15416     15419     15417     15416     15418
     15417     15416     15419     15418     15416     15419     15416     15419     15420
     15419     15420     15421     15419     15420     15422     15421     15420     15422
     15420     15422     15423     15420     15422     15424     15420     15422     15466
     15423     15422     15424     15423     15422     15466     15424     15422     15466
     15413     15425     15426     15413     15425     15427     15413     15425     15428
     15426     15425     15427     15426     15425     15428     15427     15425     15428
     15425     15428     15429     15425     15428     15430     15425     15428     15431
     15429     15428     15430     15429     15428     15431     15430     15428     15431
     15428     15431     15432     15428     15431     15433     15428     15431     15434
     15432     15431     15433     15432     15431     15434     15433     15431     15434
     15431     15434     15435     15431     15434     15436     15431     15434     15437
     15435     15434     15436     15435     15434     15437     15436     15434     15437
     15434     15437     15438     15434     15437     15439     15434     15437     15440
     15438     15437     15439     15438     15437     15440     15439     15437     15440
     15437     15440     15441     15437     15440     15442     15437     15440     15443
     15441     15440     15442     15441     15440     15443     15442     15440     15443
     15440     15443     15444     15440     15443     15445     15444     15443     15445
     15443     15445     15446     15443     15445     15447     15446     15445     15447
     15445     15447     15448     15445     15447     15449     15445     15447     15450
     15448     15447     15449     15448     15447     15450     15449     15447     15450
     15447     15450     15451     15447     15450     15452     15447     15450     15453
     15451     15450     15452     15451     15450     15453     15452     15450     15453
     15450     15453     15454     15450     15453     15455     15450     15453     15456
     15454     15453     15455     15454     15453     15456     15455     15453     15456
     15453     15456     15457     15453     15456     15458     15453     15456     15459
     15457     15456     15458     15457     15456     15459     15458     15456     15459
     15456     15459     15460     15456     15459     15461     15456     15459     15462
     15460     15459     15461     15460     15459     15462     15461     15459     15462
     15459     15462     15463     15459     15462     15464     15459     15462     15465
     15463     15462     15464     15463     15462     15465     15464     15462     15465
     15422     15466     15467     15422     15466     15468     15422     15466     15469
     15467     15466     15468     15467     15466     15469     15468     15466     15469
     15466     15469     15470     15466     15469     15471     15466     15469     15472
     15470     15469     15471     15470     15469     15472     15471     15469     15472
     15469     15472     15473     15469     15472     15474     15469     15472     15475
     15473     15472     15474     15473     15472     15475     15474     15472     15475
     15472     15475     15476     15472     15475     15477     15472     15475     15478
     15476     15475     15477     15476     15475     15478     15477     15475     15478
     15475     15478     15479     15475     15478     15480     15475     15478     15481
     15479     15478     15480     15479     15478     15481     15480     15478     15481
     15478     15481     15482     15478     15481     15483     15478     15481     15484
     15482     15481     15483     15482     15481     15484     15483     15481     15484
     15481     15484     15485     15481     15484     15486     15485     15484     15486
     15484     15486     15487     15484     15486     15488     15487     15486     15488
     15486     15488     15489     15486     15488     15490     15486     15488     15491
     15489     15488     15490     15489     15488     15491     15490     15488     15491
     15488     15491     15492     15488     15491     15493     15488     15491     15494
     15492     15491     15493     15492     15491     15494     15493     15491     15494
     15491     15494     15495     15491     15494     15496     15491     15494     15497
     15495     15494     15496     15495     15494     15497     15496     15494     15497
     15494     15497     15498     15494     15497     15499     15494     15497     15500
     15498     15497     15499     15498     15497     15500     15499     15497     15500
     15497     15500     15501     15497     15500     15502     15497     15500     15503
     15501     15500     15502     15501     15500     15503     15502     15500     15503
     15500     15503     15504     15500     15503     15505     15500     15503     15506
     15504     15503     15505     15504     15503     15506     15505     15503     15506
     15503     15506     15507     15503     15506     15508     15503     15506     15509
     15507     15506     15508     15507     15506     15509     15508     15506     15509
     15506     15509     15510     15506     15509     15511     15506     15509     15512
     15510     15509     15511     15510     15509     15512     15511     15509     15512
     15514     15513     15515     15514     15513     15516     15514     15513     15517
     15515     15513     15516     15515     15513     15517     15516     15513     15517
     15513     15517     15518     15513     15517     15519     15513     15517     15520
     15518     15517     15519     15518     15517     15520     15519     15517     15520
     15517     15520     15521     15517     15520     15522     15517     15520     15527
     15521     15520     15522     15521     15520     15527     15522     15520     15527
     15524     15523     15525     15524     15523     15526     15524     15523     15527
     15525     15523     15526     15525     15523     15527     15526     15523     15527
     15523     15526     15528     15520     15527     15523     15526     15528     15529
     15526     15528     15530     15526     15528     15531     15529     15528     15530
     15529     15528     15531     15530     15528     15531     15528     15531     15532
     15528     15531     15533     15528     15531     15539     15532     15531     15533
     15532     15531     15539     15533     15531     15539     15531     15533     15534
     15533     15534     15535     15533     15534     15536     15535     15534     15536
     15534     15536     15537     15534     15536     15538     15534     15536     15548
     15537     15536     15538     15537     15536     15548     15538     15536     15548
     15531     15539     15540     15531     15539     15541     15531     15539     15542
     15540     15539     15541     15540     15539     15542     15541     15539     15542
     15539     15542     15543     15542     15543     15544     15542     15543     15545
     15544     15543     15545     15543     15545     15546     15543     15545     15547
     15543     15545     15592     15546     15545     15547     15546     15545     15592
     15547     15545     15592     15536     15548     15549     15536     15548     15550
     15536     15548     15551     15549     15548     15550     15549     15548     15551
     15550     15548     15551     15548     15551     15552     15548     15551     15553
     15548     15551     15554     15552     15551     15553     15552     15551     15554
     15553     15551     15554     15551     15554     15555     15551     15554     15556
     15551     15554     15557     15555     15554     15556     15555     15554     15557
     15556     15554     15557     15554     15557     15558     15554     15557     15559
     15554     15557     15560     15558     15557     15559     15558     15557     15560
     15559     15557     15560     15557     15560     15561     15557     15560     15562
     15557     15560     15563     15561     15560     15562     15561     15560     15563
     15562     15560     15563     15560     15563     15564     15560     15563     15565
     15560     15563     15566     15564     15563     15565     15564     15563     15566
     15565     15563     15566     15563     15566     15567     15563     15566     15568
     15563     15566     15571     15567     15566     15568     15567     15566     15571
     15568     15566     15571     15566     15568     15569     15566     15568     15570
     15566     15568     15571     15569     15568     15570     15569     15568     15571
     15570     15568     15571     15566     15571     15568     15566     15571     15572
     15566     15571     15573     15568     15571     15572     15568     15571     15573
     15572     15571     15573     15571     15573     15574     15571     15573     15575
     15571     15573     15576     15574     15573     15575     15574     15573     15576
     15575     15573     15576     15573     15576     15577     15573     15576     15578
     15573     15576     15579     15577     15576     15578     15577     15576     15579
     15578     15576     15579     15576     15579     15580     15576     15579     15581
     15576     15579     15582     15580     15579     15581     15580     15579     15582
     15581     15579     15582     15579     15582     15583     15579     15582     15584
     15579     15582     15585     15583     15582     15584     15583     15582     15585
     15584     15582     15585     15582     15585     15586     15582     15585     15587
     15582     15585     15588     15586     15585     15587     15586     15585     15588
     15587     15585     15588     15585     15588     15589     15585     15588     15590
     15585     15588     15591     15589     15588     15590     15589     15588     15591
     15590     15588     15591     15545     15592     15593     15545     15592     15594
     15545     15592     15595     15593     15592     15594     15593     15592     15595
     15594     15592     15595     15592     15595     15596     15592     15595     15597
     15592     15595     15598     15596     15595     15597     15596     15595     15598
     15597     15595     15598     15595     15598     15599     15595     15598     15600
     15595     15598     15601     15599     15598     15600     15599     15598     15601
     15600     15598     15601     15598     15601     15602     15598     15601     15603
     15598     15601     15604     15602     15601     15603     15602     15601     15604
     15603     15601     15604     15601     15604     15605     15601     15604     15606
     15601     15604     15607     15605     15604     15606     15605     15604     15607
     15606     15604     15607     15604     15607     15608     15604     15607     15609
     15604     15607     15610     15608     15607     15609     15608     15607     15610
     15609     15607     15610     15607     15610     15611     15607     15610     15612
     15607     15610     15613     15611     15610     15612     15611     15610     15613
     15612     15610     15613     15610     15613     15614     15610     15613     15615
     15610     15613     15616     15614     15613     15615     15614     15613     15616
     15615     15613     15616     15613     15616     15617     15613     15616     15618
     15613     15616     15619     15617     15616     15618     15617     15616     15619
     15618     15616     15619     15616     15619     15620     15616     15619     15621
     15616     15619     15622     15620     15619     15621     15620     15619     15622
     15621     15619     15622     15619     15622     15623     15619     15622     15624
     15619     15622     15625     15623     15622     15624     15623     15622     15625
     15624     15622     15625     15622     15625     15626     15622     15625     15627
     15622     15625     15628     15626     15625     15627     15626     15625     15628
     15627     15625     15628     15625     15628     15629     15625     15628     15630
     15625     15628     15631     15629     15628     15630     15629     15628     15631
     15630     15628     15631     15628     15631     15632     15628     15631     15633
     15628     15631     15634     15632     15631     15633     15632     15631     15634
     15633     15631     15634     15636     15635     15637     15636     15635     15638
     15636     15635     15639     15637     15635     15638     15637     15635     15639
     15638     15635     15639     15635     15639     15640     15635     15639     15641
     15635     15639     15642     15640     15639     15641     15640     15639     15642
     15641     15639     15642     15639     15642     15643     15639     15642     15644
     15639     15642     15649     15643     15642     15644     15643     15642     15649
     15644     15642     15649     15646     15645     15647     15646     15645     15648
     15646     15645     15649     15647     15645     15648     15647     15645     15649
     15648     15645     15649     15645     15648     15650     15642     15649     15645
     15648     15650     15651     15648     15650     15652     15648     15650     15653
     15651     15650     15652     15651     15650     15653     15652     15650     15653
     15650     15653     15654     15650     15653     15655     15650     15653     15661
     15654     15653     15655     15654     15653     15661     15655     15653     15661
     15653     15655     15656     15655     15656     15657     15655     15656     15658
     15657     15656     15658     15656     15658     15659     15656     15658     15660
     15656     15658     15670     15659     15658     15660     15659     15658     15670
     15660     15658     15670     15653     15661     15662     15653     15661     15663
     15653     15661     15664     15662     15661     15663     15662     15661     15664
     15663     15661     15664     15661     15664     15665     15664     15665     15666
     15664     15665     15667     15666     15665     15667     15665     15667     15668
     15665     15667     15669     15665     15667     15714     15668     15667     15669
     15668     15667     15714     15669     15667     15714     15658     15670     15671
     15658     15670     15672     15658     15670     15673     15671     15670     15672
     15671     15670     15673     15672     15670     15673     15670     15673     15674
     15670     15673     15675     15670     15673     15676     15674     15673     15675
     15674     15673     15676     15675     15673     15676     15673     15676     15677
     15673     15676     15678     15673     15676     15679     15677     15676     15678
     15677     15676     15679     15678     15676     15679     15676     15679     15680
     15676     15679     15681     15676     15679     15682     15680     15679     15681
     15680     15679     15682     15681     15679     15682     15679     15682     15683
     15679     15682     15684     15679     15682     15685     15683     15682     15684
     15683     15682     15685     15684     15682     15685     15682     15685     15686
     15682     15685     15687     15682     15685     15688     15686     15685     15687
     15686     15685     15688     15687     15685     15688     15685     15688     15689
     15685     15688     15690     15685     15688     15693     15689     15688     15690
     15689     15688     15693     15690     15688     15693     15688     15690     15691
     15688     15690     15692     15688     15690     15693     15691     15690     15692
     15691     15690     15693     15692     15690     15693     15688     15693     15690
     15688     15693     15694     15688     15693     15695     15690     15693     15694
     15690     15693     15695     15694     15693     15695     15693     15695     15696
     15693     15695     15697     15693     15695     15698     15696     15695     15697
     15696     15695     15698     15697     15695     15698     15695     15698     15699
     15695     15698     15700     15695     15698     15701     15699     15698     15700
     15699     15698     15701     15700     15698     15701     15698     15701     15702
     15698     15701     15703     15698     15701     15704     15702     15701     15703
     15702     15701     15704     15703     15701     15704     15701     15704     15705
     15701     15704     15706     15701     15704     15707     15705     15704     15706
     15705     15704     15707     15706     15704     15707     15704     15707     15708
     15704     15707     15709     15704     15707     15710     15708     15707     15709
     15708     15707     15710     15709     15707     15710     15707     15710     15711
     15707     15710     15712     15707     15710     15713     15711     15710     15712
     15711     15710     15713     15712     15710     15713     15667     15714     15715
     15667     15714     15716     15667     15714     15717     15715     15714     15716
     15715     15714     15717     15716     15714     15717     15714     15717     15718
     15714     15717     15719     15714     15717     15720     15718     15717     15719
     15718     15717     15720     15719     15717     15720     15717     15720     15721
     15717     15720     15722     15717     15720     15723     15721     15720     15722
     15721     15720     15723     15722     15720     15723     15720     15723     15724
     15720     15723     15725     15720     15723     15726     15724     15723     15725
     15724     15723     15726     15725     15723     15726     15723     15726     15727
     15723     15726     15728     15723     15726     15729     15727     15726     15728
     15727     15726     15729     15728     15726     15729     15726     15729     15730
     15726     15729     15731     15726     15729     15732     15730     15729     15731
     15730     15729     15732     15731     15729     15732     15729     15732     15733
     15729     15732     15734     15729     15732     15735     15733     15732     15734
     15733     15732     15735     15734     15732     15735     15732     15735     15736
     15732     15735     15737     15732     15735     15738     15736     15735     15737
     15736     15735     15738     15737     15735     15738     15735     15738     15739
     15735     15738     15740     15735     15738     15741     15739     15738     15740
     15739     15738     15741     15740     15738     15741     15738     15741     15742
     15738     15741     15743     15738     15741     15744     15742     15741     15743
     15742     15741     15744     15743     15741     15744     15741     15744     15745
     15741     15744     15746     15741     15744     15747     15745     15744     15746
     15745     15744     15747     15746     15744     15747     15744     15747     15748
     15744     15747     15749     15744     15747     15750     15748     15747     15749
     15748     15747     15750     15749     15747     15750     15747     15750     15751
     15747     15750     15752     15747     15750     15753     15751     15750     15752
     15751     15750     15753     15752     15750     15753     15750     15753     15754
     15750     15753     15755     15750     15753     15756     15754     15753     15755
     15754     15753     15756     15755     15753     15756     15758     15757     15759
     15758     15757     15760     15758     15757     15761     15759     15757     15760
     15759     15757     15761     15760     15757     15761     15757     15761     15762
     15757     15761     15763     15757     15761     15764     15762     15761     15763
     15762     15761     15764     15763     15761     15764     15761     15764     15765
     15761     15764     15766     15761     15764     15771     15765     15764     15766
     15765     15764     15771     15766     15764     15771     15768     15767     15769
     15768     15767     15770     15768     15767     15771     15769     15767     15770
     15769     15767     15771     15770     15767     15771     15767     15770     15772
     15764     15771     15767     15770     15772     15773     15770     15772     15774
     15770     15772     15775     15773     15772     15774     15773     15772     15775
     15774     15772     15775     15772     15775     15776     15772     15775     15777
     15772     15775     15783     15776     15775     15777     15776     15775     15783
     15777     15775     15783     15775     15777     15778     15777     15778     15779
     15777     15778     15780     15779     15778     15780     15778     15780     15781
     15778     15780     15782     15778     15780     15792     15781     15780     15782
     15781     15780     15792     15782     15780     15792     15775     15783     15784
     15775     15783     15785     15775     15783     15786     15784     15783     15785
     15784     15783     15786     15785     15783     15786     15783     15786     15787
     15786     15787     15788     15786     15787     15789     15788     15787     15789
     15787     15789     15790     15787     15789     15791     15787     15789     15836
     15790     15789     15791     15790     15789     15836     15791     15789     15836
     15780     15792     15793     15780     15792     15794     15780     15792     15795
     15793     15792     15794     15793     15792     15795     15794     15792     15795
     15792     15795     15796     15792     15795     15797     15792     15795     15798
     15796     15795     15797     15796     15795     15798     15797     15795     15798
     15795     15798     15799     15795     15798     15800     15795     15798     15801
     15799     15798     15800     15799     15798     15801     15800     15798     15801
     15798     15801     15802     15798     15801     15803     15798     15801     15804
     15802     15801     15803     15802     15801     15804     15803     15801     15804
     15801     15804     15805     15801     15804     15806     15801     15804     15807
     15805     15804     15806     15805     15804     15807     15806     15804     15807
     15804     15807     15808     15804     15807     15809     15804     15807     15810
     15808     15807     15809     15808     15807     15810     15809     15807     15810
     15807     15810     15811     15807     15810     15812     15807     15810     15815
     15811     15810     15812     15811     15810     15815     15812     15810     15815
     15810     15812     15813     15810     15812     15814     15810     15812     15815
     15813     15812     15814     15813     15812     15815     15814     15812     15815
     15810     15815     15812     15810     15815     15816     15810     15815     15817
     15812     15815     15816     15812     15815     15817     15816     15815     15817
     15815     15817     15818     15815     15817     15819     15815     15817     15820
     15818     15817     15819     15818     15817     15820     15819     15817     15820
     15817     15820     15821     15817     15820     15822     15817     15820     15823
     15821     15820     15822     15821     15820     15823     15822     15820     15823
     15820     15823     15824     15820     15823     15825     15820     15823     15826
     15824     15823     15825     15824     15823     15826     15825     15823     15826
     15823     15826     15827     15823     15826     15828     15823     15826     15829
     15827     15826     15828     15827     15826     15829     15828     15826     15829
     15826     15829     15830     15826     15829     15831     15826     15829     15832
     15830     15829     15831     15830     15829     15832     15831     15829     15832
     15829     15832     15833     15829     15832     15834     15829     15832     15835
     15833     15832     15834     15833     15832     15835     15834     15832     15835
     15789     15836     15837     15789     15836     15838     15789     15836     15839
     15837     15836     15838     15837     15836     15839     15838     15836     15839
     15836     15839     15840     15836     15839     15841     15836     15839     15842
     15840     15839     15841     15840     15839     15842     15841     15839     15842
     15839     15842     15843     15839     15842     15844     15839     15842     15845
     15843     15842     15844     15843     15842     15845     15844     15842     15845
     15842     15845     15846     15842     15845     15847     15842     15845     15848
     15846     15845     15847     15846     15845     15848     15847     15845     15848
     15845     15848     15849     15845     15848     15850     15845     15848     15851
     15849     15848     15850     15849     15848     15851     15850     15848     15851
     15848     15851     15852     15848     15851     15853     15848     15851     15854
     15852     15851     15853     15852     15851     15854     15853     15851     15854
     15851     15854     15855     15851     15854     15856     15851     15854     15857
     15855     15854     15856     15855     15854     15857     15856     15854     15857
     15854     15857     15858     15854     15857     15859     15854     15857     15860
     15858     15857     15859     15858     15857     15860     15859     15857     15860
     15857     15860     15861     15857     15860     15862     15857     15860     15863
     15861     15860     15862     15861     15860     15863     15862     15860     15863
     15860     15863     15864     15860     15863     15865     15860     15863     15866
     15864     15863     15865     15864     15863     15866     15865     15863     15866
     15863     15866     15867     15863     15866     15868     15863     15866     15869
     15867     15866     15868     15867     15866     15869     15868     15866     15869
     15866     15869     15870     15866     15869     15871     15866     15869     15872
     15870     15869     15871     15870     15869     15872     15871     15869     15872
     15869     15872     15873     15869     15872     15874     15869     15872     15875
     15873     15872     15874     15873     15872     15875     15874     15872     15875
     15877     15876     15878     15877     15876     15879     15877     15876     15881
     15878     15876     15879     15878     15876     15881     15879     15876     15881
     15876     15879     15880     15876     15881     15882     15876     15881     15883
     15876     15881     15885     15882     15881     15883     15882     15881     15885
     15883     15881     15885     15881     15883     15884     15881     15885     15886
     15881     15885     15887     15881     15885     15892     15886     15885     15887
     15886     15885     15892     15887     15885     15892     15889     15888     15890
     15889     15888     15891     15889     15888     15892     15890     15888     15891
     15890     15888     15892     15891     15888     15892     15888     15891     15893
     15885     15892     15888     15891     15893     15894     15891     15893     15895
     15891     15893     15896     15894     15893     15895     15894     15893     15896
     15895     15893     15896     15893     15896     15897     15893     15896     15898
     15893     15896     15904     15897     15896     15898     15897     15896     15904
     15898     15896     15904     15896     15898     15899     15898     15899     15900
     15898     15899     15901     15900     15899     15901     15899     15901     15902
     15899     15901     15903     15899     15901     15913     15902     15901     15903
     15902     15901     15913     15903     15901     15913     15896     15904     15905
     15896     15904     15906     15896     15904     15907     15905     15904     15906
     15905     15904     15907     15906     15904     15907     15904     15907     15908
     15907     15908     15909     15907     15908     15910     15909     15908     15910
     15908     15910     15911     15908     15910     15912     15908     15910     15954
     15911     15910     15912     15911     15910     15954     15912     15910     15954
     15901     15913     15914     15901     15913     15915     15901     15913     15916
     15914     15913     15915     15914     15913     15916     15915     15913     15916
     15913     15916     15917     15913     15916     15918     15913     15916     15919
     15917     15916     15918     15917     15916     15919     15918     15916     15919
     15916     15919     15920     15916     15919     15921     15916     15919     15922
     15920     15919     15921     15920     15919     15922     15921     15919     15922
     15919     15922     15923     15919     15922     15924     15919     15922     15925
     15923     15922     15924     15923     15922     15925     15924     15922     15925
     15922     15925     15926     15922     15925     15927     15922     15925     15928
     15926     15925     15927     15926     15925     15928     15927     15925     15928
     15925     15928     15929     15925     15928     15930     15925     15928     15931
     15929     15928     15930     15929     15928     15931     15930     15928     15931
     15928     15931     15932     15928     15931     15933     15932     15931     15933
     15931     15933     15934     15931     15933     15935     15934     15933     15935
     15933     15935     15936     15933     15935     15937     15933     15935     15938
     15936     15935     15937     15936     15935     15938     15937     15935     15938
     15935     15938     15939     15935     15938     15940     15935     15938     15941
     15939     15938     15940     15939     15938     15941     15940     15938     15941
     15938     15941     15942     15938     15941     15943     15938     15941     15944
     15942     15941     15943     15942     15941     15944     15943     15941     15944
     15941     15944     15945     15941     15944     15946     15941     15944     15947
     15945     15944     15946     15945     15944     15947     15946     15944     15947
     15944     15947     15948     15944     15947     15949     15944     15947     15950
     15948     15947     15949     15948     15947     15950     15949     15947     15950
     15947     15950     15951     15947     15950     15952     15947     15950     15953
     15951     15950     15952     15951     15950     15953     15952     15950     15953
     15910     15954     15955     15910     15954     15956     15910     15954     15957
     15955     15954     15956     15955     15954     15957     15956     15954     15957
     15954     15957     15958     15954     15957     15959     15954     15957     15960
     15958     15957     15959     15958     15957     15960     15959     15957     15960
     15957     15960     15961     15957     15960     15962     15957     15960     15963
     15961     15960     15962     15961     15960     15963     15962     15960     15963
     15960     15963     15964     15960     15963     15965     15960     15963     15966
     15964     15963     15965     15964     15963     15966     15965     15963     15966
     15963     15966     15967     15963     15966     15968     15963     15966     15969
     15967     15966     15968     15967     15966     15969     15968     15966     15969
     15966     15969     15970     15966     15969     15971     15966     15969     15972
     15970     15969     15971     15970     15969     15972     15971     15969     15972
     15969     15972     15973     15969     15972     15974     15969     15972     15975
     15973     15972     15974     15973     15972     15975     15974     15972     15975
     15972     15975     15976     15972     15975     15977     15972     15975     15978
     15976     15975     15977     15976     15975     15978     15977     15975     15978
     15975     15978     15979     15975     15978     15980     15975     15978     15981
     15979     15978     15980     15979     15978     15981     15980     15978     15981
     15978     15981     15982     15978     15981     15983     15978     15981     15984
     15982     15981     15983     15982     15981     15984     15983     15981     15984
     15981     15984     15985     15981     15984     15986     15981     15984     15987
     15985     15984     15986     15985     15984     15987     15986     15984     15987
     15984     15987     15988     15984     15987     15989     15984     15987     15990
     15988     15987     15989     15988     15987     15990     15989     15987     15990
     15987     15990     15991     15987     15990     15992     15987     15990     15993
     15991     15990     15992     15991     15990     15993     15992     15990     15993
     15990     15993     15994     15990     15993     15995     15990     15993     15996
     15994     15993     15995     15994     15993     15996     15995     15993     15996
     15998     15997     15999     15998     15997     16000     15998     15997     16002
     15999     15997     16000     15999     15997     16002     16000     15997     16002
     15997     16000     16001     15997     16002     16003     15997     16002     16004
     15997     16002     16006     16003     16002     16004     16003     16002     16006
     16004     16002     16006     16002     16004     16005     16002     16006     16007
     16002     16006     16008     16002     16006     16013     16007     16006     16008
     16007     16006     16013     16008     16006     16013     16010     16009     16011
     16010     16009     16012     16010     16009     16013     16011     16009     16012
     16011     16009     16013     16012     16009     16013     16009     16012     16014
     16006     16013     16009     16012     16014     16015     16012     16014     16016
     16012     16014     16017     16015     16014     16016     16015     16014     16017
     16016     16014     16017     16014     16017     16018     16014     16017     16019
     16014     16017     16025     16018     16017     16019     16018     16017     16025
     16019     16017     16025     16017     16019     16020     16019     16020     16021
     16019     16020     16022     16021     16020     16022     16020     16022     16023
     16020     16022     16024     16020     16022     16034     16023     16022     16024
     16023     16022     16034     16024     16022     16034     16017     16025     16026
     16017     16025     16027     16017     16025     16028     16026     16025     16027
     16026     16025     16028     16027     16025     16028     16025     16028     16029
     16028     16029     16030     16028     16029     16031     16030     16029     16031
     16029     16031     16032     16029     16031     16033     16029     16031     16075
     16032     16031     16033     16032     16031     16075     16033     16031     16075
     16022     16034     16035     16022     16034     16036     16022     16034     16037
     16035     16034     16036     16035     16034     16037     16036     16034     16037
     16034     16037     16038     16034     16037     16039     16034     16037     16040
     16038     16037     16039     16038     16037     16040     16039     16037     16040
     16037     16040     16041     16037     16040     16042     16037     16040     16043
     16041     16040     16042     16041     16040     16043     16042     16040     16043
     16040     16043     16044     16040     16043     16045     16040     16043     16046
     16044     16043     16045     16044     16043     16046     16045     16043     16046
     16043     16046     16047     16043     16046     16048     16043     16046     16049
     16047     16046     16048     16047     16046     16049     16048     16046     16049
     16046     16049     16050     16046     16049     16051     16046     16049     16052
     16050     16049     16051     16050     16049     16052     16051     16049     16052
     16049     16052     16053     16049     16052     16054     16053     16052     16054
     16052     16054     16055     16052     16054     16056     16055     16054     16056
     16054     16056     16057     16054     16056     16058     16054     16056     16059
     16057     16056     16058     16057     16056     16059     16058     16056     16059
     16056     16059     16060     16056     16059     16061     16056     16059     16062
     16060     16059     16061     16060     16059     16062     16061     16059     16062
     16059     16062     16063     16059     16062     16064     16059     16062     16065
     16063     16062     16064     16063     16062     16065     16064     16062     16065
     16062     16065     16066     16062     16065     16067     16062     16065     16068
     16066     16065     16067     16066     16065     16068     16067     16065     16068
     16065     16068     16069     16065     16068     16070     16065     16068     16071
     16069     16068     16070     16069     16068     16071     16070     16068     16071
     16068     16071     16072     16068     16071     16073     16068     16071     16074
     16072     16071     16073     16072     16071     16074     16073     16071     16074
     16031     16075     16076     16031     16075     16077     16031     16075     16078
     16076     16075     16077     16076     16075     16078     16077     16075     16078
     16075     16078     16079     16075     16078     16080     16075     16078     16081
     16079     16078     16080     16079     16078     16081     16080     16078     16081
     16078     16081     16082     16078     16081     16083     16078     16081     16084
     16082     16081     16083     16082     16081     16084     16083     16081     16084
     16081     16084     16085     16081     16084     16086     16081     16084     16087
     16085     16084     16086     16085     16084     16087     16086     16084     16087
     16084     16087     16088     16084     16087     16089     16084     16087     16090
     16088     16087     16089     16088     16087     16090     16089     16087     16090
     16087     16090     16091     16087     16090     16092     16087     16090     16093
     16091     16090     16092     16091     16090     16093     16092     16090     16093
     16090     16093     16094     16090     16093     16095     16090     16093     16096
     16094     16093     16095     16094     16093     16096     16095     16093     16096
     16093     16096     16097     16093     16096     16098     16093     16096     16099
     16097     16096     16098     16097     16096     16099     16098     16096     16099
     16096     16099     16100     16096     16099     16101     16096     16099     16102
     16100     16099     16101     16100     16099     16102     16101     16099     16102
     16099     16102     16103     16099     16102     16104     16099     16102     16105
     16103     16102     16104     16103     16102     16105     16104     16102     16105
     16102     16105     16106     16102     16105     16107     16102     16105     16108
     16106     16105     16107     16106     16105     16108     16107     16105     16108
     16105     16108     16109     16105     16108     16110     16105     16108     16111
     16109     16108     16110     16109     16108     16111     16110     16108     16111
     16108     16111     16112     16108     16111     16113     16108     16111     16114
     16112     16111     16113     16112     16111     16114     16113     16111     16114
     16111     16114     16115     16111     16114     16116     16111     16114     16117
     16115     16114     16116     16115     16114     16117     16116     16114     16117
     16119     16118     16120     16119     16118     16121     16119     16118     16122
     16120     16118     16121     16120     16118     16122     16121     16118     16122
     16118     16122     16123     16118     16122     16124     16118     16122     16125
     16123     16122     16124     16123     16122     16125     16124     16122     16125
     16122     16125     16126     16122     16125     16127     16122     16125     16132
     16126     16125     16127     16126     16125     16132     16127     16125     16132
     16129     16128     16130     16129     16128     16131     16129     16128     16132
     16130     16128     16131     16130     16128     16132     16131     16128     16132
     16128     16131     16133     16125     16132     16128     16131     16133     16134
     16131     16133     16135     16131     16133     16136     16134     16133     16135
     16134     16133     16136     16135     16133     16136     16133     16136     16137
     16133     16136     16138     16133     16136     16144     16137     16136     16138
     16137     16136     16144     16138     16136     16144     16136     16138     16139
     16138     16139     16140     16138     16139     16141     16140     16139     16141
     16139     16141     16142     16139     16141     16143     16139     16141     16153
     16142     16141     16143     16142     16141     16153     16143     16141     16153
     16136     16144     16145     16136     16144     16146     16136     16144     16147
     16145     16144     16146     16145     16144     16147     16146     16144     16147
     16144     16147     16148     16147     16148     16149     16147     16148     16150
     16149     16148     16150     16148     16150     16151     16148     16150     16152
     16148     16150     16197     16151     16150     16152     16151     16150     16197
     16152     16150     16197     16141     16153     16154     16141     16153     16155
     16141     16153     16156     16154     16153     16155     16154     16153     16156
     16155     16153     16156     16153     16156     16157     16153     16156     16158
     16153     16156     16159     16157     16156     16158     16157     16156     16159
     16158     16156     16159     16156     16159     16160     16156     16159     16161
     16156     16159     16162     16160     16159     16161     16160     16159     16162
     16161     16159     16162     16159     16162     16163     16159     16162     16164
     16159     16162     16165     16163     16162     16164     16163     16162     16165
     16164     16162     16165     16162     16165     16166     16162     16165     16167
     16162     16165     16168     16166     16165     16167     16166     16165     16168
     16167     16165     16168     16165     16168     16169     16165     16168     16170
     16165     16168     16171     16169     16168     16170     16169     16168     16171
     16170     16168     16171     16168     16171     16172     16168     16171     16173
     16168     16171     16176     16172     16171     16173     16172     16171     16176
     16173     16171     16176     16171     16173     16174     16171     16173     16175
     16171     16173     16176     16174     16173     16175     16174     16173     16176
     16175     16173     16176     16171     16176     16173     16171     16176     16177
     16171     16176     16178     16173     16176     16177     16173     16176     16178
     16177     16176     16178     16176     16178     16179     16176     16178     16180
     16176     16178     16181     16179     16178     16180     16179     16178     16181
     16180     16178     16181     16178     16181     16182     16178     16181     16183
     16178     16181     16184     16182     16181     16183     16182     16181     16184
     16183     16181     16184     16181     16184     16185     16181     16184     16186
     16181     16184     16187     16185     16184     16186     16185     16184     16187
     16186     16184     16187     16184     16187     16188     16184     16187     16189
     16184     16187     16190     16188     16187     16189     16188     16187     16190
     16189     16187     16190     16187     16190     16191     16187     16190     16192
     16187     16190     16193     16191     16190     16192     16191     16190     16193
     16192     16190     16193     16190     16193     16194     16190     16193     16195
     16190     16193     16196     16194     16193     16195     16194     16193     16196
     16195     16193     16196     16150     16197     16198     16150     16197     16199
     16150     16197     16200     16198     16197     16199     16198     16197     16200
     16199     16197     16200     16197     16200     16201     16197     16200     16202
     16197     16200     16203     16201     16200     16202     16201     16200     16203
     16202     16200     16203     16200     16203     16204     16200     16203     16205
     16200     16203     16206     16204     16203     16205     16204     16203     16206
     16205     16203     16206     16203     16206     16207     16203     16206     16208
     16203     16206     16209     16207     16206     16208     16207     16206     16209
     16208     16206     16209     16206     16209     16210     16206     16209     16211
     16206     16209     16212     16210     16209     16211     16210     16209     16212
     16211     16209     16212     16209     16212     16213     16209     16212     16214
     16209     16212     16215     16213     16212     16214     16213     16212     16215
     16214     16212     16215     16212     16215     16216     16212     16215     16217
     16212     16215     16218     16216     16215     16217     16216     16215     16218
     16217     16215     16218     16215     16218     16219     16215     16218     16220
     16215     16218     16221     16219     16218     16220     16219     16218     16221
     16220     16218     16221     16218     16221     16222     16218     16221     16223
     16218     16221     16224     16222     16221     16223     16222     16221     16224
     16223     16221     16224     16221     16224     16225     16221     16224     16226
     16221     16224     16227     16225     16224     16226     16225     16224     16227
     16226     16224     16227     16224     16227     16228     16224     16227     16229
     16224     16227     16230     16228     16227     16229     16228     16227     16230
     16229     16227     16230     16227     16230     16231     16227     16230     16232
     16227     16230     16233     16231     16230     16232     16231     16230     16233
     16232     16230     16233     16230     16233     16234     16230     16233     16235
     16230     16233     16236     16234     16233     16235     16234     16233     16236
     16235     16233     16236     16233     16236     16237     16233     16236     16238
     16233     16236     16239     16237     16236     16238     16237     16236     16239
     16238     16236     16239     16241     16240     16242     16241     16240     16243
     16241     16240     16244     16242     16240     16243     16242     16240     16244
     16243     16240     16244     16240     16244     16245     16240     16244     16246
     16240     16244     16247     16245     16244     16246     16245     16244     16247
     16246     16244     16247     16244     16247     16248     16244     16247     16249
     16244     16247     16254     16248     16247     16249     16248     16247     16254
     16249     16247     16254     16251     16250     16252     16251     16250     16253
     16251     16250     16254     16252     16250     16253     16252     16250     16254
     16253     16250     16254     16250     16253     16255     16247     16254     16250
     16253     16255     16256     16253     16255     16257     16253     16255     16258
     16256     16255     16257     16256     16255     16258     16257     16255     16258
     16255     16258     16259     16255     16258     16260     16255     16258     16266
     16259     16258     16260     16259     16258     16266     16260     16258     16266
     16258     16260     16261     16260     16261     16262     16260     16261     16263
     16262     16261     16263     16261     16263     16264     16261     16263     16265
     16261     16263     16275     16264     16263     16265     16264     16263     16275
     16265     16263     16275     16258     16266     16267     16258     16266     16268
     16258     16266     16269     16267     16266     16268     16267     16266     16269
     16268     16266     16269     16266     16269     16270     16269     16270     16271
     16269     16270     16272     16271     16270     16272     16270     16272     16273
     16270     16272     16274     16270     16272     16319     16273     16272     16274
     16273     16272     16319     16274     16272     16319     16263     16275     16276
     16263     16275     16277     16263     16275     16278     16276     16275     16277
     16276     16275     16278     16277     16275     16278     16275     16278     16279
     16275     16278     16280     16275     16278     16281     16279     16278     16280
     16279     16278     16281     16280     16278     16281     16278     16281     16282
     16278     16281     16283     16278     16281     16284     16282     16281     16283
     16282     16281     16284     16283     16281     16284     16281     16284     16285
     16281     16284     16286     16281     16284     16287     16285     16284     16286
     16285     16284     16287     16286     16284     16287     16284     16287     16288
     16284     16287     16289     16284     16287     16290     16288     16287     16289
     16288     16287     16290     16289     16287     16290     16287     16290     16291
     16287     16290     16292     16287     16290     16293     16291     16290     16292
     16291     16290     16293     16292     16290     16293     16290     16293     16294
     16290     16293     16295     16290     16293     16298     16294     16293     16295
     16294     16293     16298     16295     16293     16298     16293     16295     16296
     16293     16295     16297     16293     16295     16298     16296     16295     16297
     16296     16295     16298     16297     16295     16298     16293     16298     16295
     16293     16298     16299     16293     16298     16300     16295     16298     16299
     16295     16298     16300     16299     16298     16300     16298     16300     16301
     16298     16300     16302     16298     16300     16303     16301     16300     16302
     16301     16300     16303     16302     16300     16303     16300     16303     16304
     16300     16303     16305     16300     16303     16306     16304     16303     16305
     16304     16303     16306     16305     16303     16306     16303     16306     16307
     16303     16306     16308     16303     16306     16309     16307     16306     16308
     16307     16306     16309     16308     16306     16309     16306     16309     16310
     16306     16309     16311     16306     16309     16312     16310     16309     16311
     16310     16309     16312     16311     16309     16312     16309     16312     16313
     16309     16312     16314     16309     16312     16315     16313     16312     16314
     16313     16312     16315     16314     16312     16315     16312     16315     16316
     16312     16315     16317     16312     16315     16318     16316     16315     16317
     16316     16315     16318     16317     16315     16318     16272     16319     16320
     16272     16319     16321     16272     16319     16322     16320     16319     16321
     16320     16319     16322     16321     16319     16322     16319     16322     16323
     16319     16322     16324     16319     16322     16325     16323     16322     16324
     16323     16322     16325     16324     16322     16325     16322     16325     16326
     16322     16325     16327     16322     16325     16328     16326     16325     16327
     16326     16325     16328     16327     16325     16328     16325     16328     16329
     16325     16328     16330     16325     16328     16331     16329     16328     16330
     16329     16328     16331     16330     16328     16331     16328     16331     16332
     16328     16331     16333     16328     16331     16334     16332     16331     16333
     16332     16331     16334     16333     16331     16334     16331     16334     16335
     16331     16334     16336     16331     16334     16337     16335     16334     16336
     16335     16334     16337     16336     16334     16337     16334     16337     16338
     16334     16337     16339     16334     16337     16340     16338     16337     16339
     16338     16337     16340     16339     16337     16340     16337     16340     16341
     16337     16340     16342     16337     16340     16343     16341     16340     16342
     16341     16340     16343     16342     16340     16343     16340     16343     16344
     16340     16343     16345     16340     16343     16346     16344     16343     16345
     16344     16343     16346     16345     16343     16346     16343     16346     16347
     16343     16346     16348     16343     16346     16349     16347     16346     16348
     16347     16346     16349     16348     16346     16349     16346     16349     16350
     16346     16349     16351     16346     16349     16352     16350     16349     16351
     16350     16349     16352     16351     16349     16352     16349     16352     16353
     16349     16352     16354     16349     16352     16355     16353     16352     16354
     16353     16352     16355     16354     16352     16355     16352     16355     16356
     16352     16355     16357     16352     16355     16358     16356     16355     16357
     16356     16355     16358     16357     16355     16358     16360     16359     16361
     16360     16359     16362     16360     16359     16363     16361     16359     16362
     16361     16359     16363     16362     16359     16363     16359     16363     16364
     16359     16363     16365     16359     16363     16366     16364     16363     16365
     16364     16363     16366     16365     16363     16366     16363     16366     16367
     16363     16366     16368     16363     16366     16373     16367     16366     16368
     16367     16366     16373     16368     16366     16373     16370     16369     16371
     16370     16369     16372     16370     16369     16373     16371     16369     16372
     16371     16369     16373     16372     16369     16373     16369     16372     16374
     16366     16373     16369     16372     16374     16375     16372     16374     16376
     16372     16374     16377     16375     16374     16376     16375     16374     16377
     16376     16374     16377     16374     16377     16378     16374     16377     16379
     16374     16377     16385     16378     16377     16379     16378     16377     16385
     16379     16377     16385     16377     16379     16380     16379     16380     16381
     16379     16380     16382     16381     16380     16382     16380     16382     16383
     16380     16382     16384     16380     16382     16394     16383     16382     16384
     16383     16382     16394     16384     16382     16394     16377     16385     16386
     16377     16385     16387     16377     16385     16388     16386     16385     16387
     16386     16385     16388     16387     16385     16388     16385     16388     16389
     16388     16389     16390     16388     16389     16391     16390     16389     16391
     16389     16391     16392     16389     16391     16393     16389     16391     16438
     16392     16391     16393     16392     16391     16438     16393     16391     16438
     16382     16394     16395     16382     16394     16396     16382     16394     16397
     16395     16394     16396     16395     16394     16397     16396     16394     16397
     16394     16397     16398     16394     16397     16399     16394     16397     16400
     16398     16397     16399     16398     16397     16400     16399     16397     16400
     16397     16400     16401     16397     16400     16402     16397     16400     16403
     16401     16400     16402     16401     16400     16403     16402     16400     16403
     16400     16403     16404     16400     16403     16405     16400     16403     16406
     16404     16403     16405     16404     16403     16406     16405     16403     16406
     16403     16406     16407     16403     16406     16408     16403     16406     16409
     16407     16406     16408     16407     16406     16409     16408     16406     16409
     16406     16409     16410     16406     16409     16411     16406     16409     16412
     16410     16409     16411     16410     16409     16412     16411     16409     16412
     16409     16412     16413     16409     16412     16414     16409     16412     16417
     16413     16412     16414     16413     16412     16417     16414     16412     16417
     16412     16414     16415     16412     16414     16416     16412     16414     16417
     16415     16414     16416     16415     16414     16417     16416     16414     16417
     16412     16417     16414     16412     16417     16418     16412     16417     16419
     16414     16417     16418     16414     16417     16419     16418     16417     16419
     16417     16419     16420     16417     16419     16421     16417     16419     16422
     16420     16419     16421     16420     16419     16422     16421     16419     16422
     16419     16422     16423     16419     16422     16424     16419     16422     16425
     16423     16422     16424     16423     16422     16425     16424     16422     16425
     16422     16425     16426     16422     16425     16427     16422     16425     16428
     16426     16425     16427     16426     16425     16428     16427     16425     16428
     16425     16428     16429     16425     16428     16430     16425     16428     16431
     16429     16428     16430     16429     16428     16431     16430     16428     16431
     16428     16431     16432     16428     16431     16433     16428     16431     16434
     16432     16431     16433     16432     16431     16434     16433     16431     16434
     16431     16434     16435     16431     16434     16436     16431     16434     16437
     16435     16434     16436     16435     16434     16437     16436     16434     16437
     16391     16438     16439     16391     16438     16440     16391     16438     16441
     16439     16438     16440     16439     16438     16441     16440     16438     16441
     16438     16441     16442     16438     16441     16443     16438     16441     16444
     16442     16441     16443     16442     16441     16444     16443     16441     16444
     16441     16444     16445     16441     16444     16446     16441     16444     16447
     16445     16444     16446     16445     16444     16447     16446     16444     16447
     16444     16447     16448     16444     16447     16449     16444     16447     16450
     16448     16447     16449     16448     16447     16450     16449     16447     16450
     16447     16450     16451     16447     16450     16452     16447     16450     16453
     16451     16450     16452     16451     16450     16453     16452     16450     16453
     16450     16453     16454     16450     16453     16455     16450     16453     16456
     16454     16453     16455     16454     16453     16456     16455     16453     16456
     16453     16456     16457     16453     16456     16458     16453     16456     16459
     16457     16456     16458     16457     16456     16459     16458     16456     16459
     16456     16459     16460     16456     16459     16461     16456     16459     16462
     16460     16459     16461     16460     16459     16462     16461     16459     16462
     16459     16462     16463     16459     16462     16464     16459     16462     16465
     16463     16462     16464     16463     16462     16465     16464     16462     16465
     16462     16465     16466     16462     16465     16467     16462     16465     16468
     16466     16465     16467     16466     16465     16468     16467     16465     16468
     16465     16468     16469     16465     16468     16470     16465     16468     16471
     16469     16468     16470     16469     16468     16471     16470     16468     16471
     16468     16471     16472     16468     16471     16473     16468     16471     16474
     16472     16471     16473     16472     16471     16474     16473     16471     16474
     16471     16474     16475     16471     16474     16476     16471     16474     16477
     16475     16474     16476     16475     16474     16477     16476     16474     16477
     16474     16477     16478     16474     16477     16479     16474     16477     16480
     16478     16477     16479     16478     16477     16480     16479     16477     16480
     16482     16481     16483     16482     16481     16484     16482     16481     16485
     16483     16481     16484     16483     16481     16485     16484     16481     16485
     16481     16485     16486     16481     16485     16487     16481     16485     16488
     16486     16485     16487     16486     16485     16488     16487     16485     16488
     16485     16488     16489     16485     16488     16490     16485     16488     16495
     16489     16488     16490     16489     16488     16495     16490     16488     16495
     16492     16491     16493     16492     16491     16494     16492     16491     16495
     16493     16491     16494     16493     16491     16495     16494     16491     16495
     16491     16494     16496     16488     16495     16491     16494     16496     16497
     16494     16496     16498     16494     16496     16499     16497     16496     16498
     16497     16496     16499     16498     16496     16499     16496     16499     16500
     16496     16499     16501     16496     16499     16507     16500     16499     16501
     16500     16499     16507     16501     16499     16507     16499     16501     16502
     16501     16502     16503     16501     16502     16504     16503     16502     16504
     16502     16504     16505     16502     16504     16506     16502     16504     16516
     16505     16504     16506     16505     16504     16516     16506     16504     16516
     16499     16507     16508     16499     16507     16509     16499     16507     16510
     16508     16507     16509     16508     16507     16510     16509     16507     16510
     16507     16510     16511     16510     16511     16512     16510     16511     16513
     16512     16511     16513     16511     16513     16514     16511     16513     16515
     16511     16513     16560     16514     16513     16515     16514     16513     16560
     16515     16513     16560     16504     16516     16517     16504     16516     16518
     16504     16516     16519     16517     16516     16518     16517     16516     16519
     16518     16516     16519     16516     16519     16520     16516     16519     16521
     16516     16519     16522     16520     16519     16521     16520     16519     16522
     16521     16519     16522     16519     16522     16523     16519     16522     16524
     16519     16522     16525     16523     16522     16524     16523     16522     16525
     16524     16522     16525     16522     16525     16526     16522     16525     16527
     16522     16525     16528     16526     16525     16527     16526     16525     16528
     16527     16525     16528     16525     16528     16529     16525     16528     16530
     16525     16528     16531     16529     16528     16530     16529     16528     16531
     16530     16528     16531     16528     16531     16532     16528     16531     16533
     16528     16531     16534     16532     16531     16533     16532     16531     16534
     16533     16531     16534     16531     16534     16535     16531     16534     16536
     16531     16534     16539     16535     16534     16536     16535     16534     16539
     16536     16534     16539     16534     16536     16537     16534     16536     16538
     16534     16536     16539     16537     16536     16538     16537     16536     16539
     16538     16536     16539     16534     16539     16536     16534     16539     16540
     16534     16539     16541     16536     16539     16540     16536     16539     16541
     16540     16539     16541     16539     16541     16542     16539     16541     16543
     16539     16541     16544     16542     16541     16543     16542     16541     16544
     16543     16541     16544     16541     16544     16545     16541     16544     16546
     16541     16544     16547     16545     16544     16546     16545     16544     16547
     16546     16544     16547     16544     16547     16548     16544     16547     16549
     16544     16547     16550     16548     16547     16549     16548     16547     16550
     16549     16547     16550     16547     16550     16551     16547     16550     16552
     16547     16550     16553     16551     16550     16552     16551     16550     16553
     16552     16550     16553     16550     16553     16554     16550     16553     16555
     16550     16553     16556     16554     16553     16555     16554     16553     16556
     16555     16553     16556     16553     16556     16557     16553     16556     16558
     16553     16556     16559     16557     16556     16558     16557     16556     16559
     16558     16556     16559     16513     16560     16561     16513     16560     16562
     16513     16560     16563     16561     16560     16562     16561     16560     16563
     16562     16560     16563     16560     16563     16564     16560     16563     16565
     16560     16563     16566     16564     16563     16565     16564     16563     16566
     16565     16563     16566     16563     16566     16567     16563     16566     16568
     16563     16566     16569     16567     16566     16568     16567     16566     16569
     16568     16566     16569     16566     16569     16570     16566     16569     16571
     16566     16569     16572     16570     16569     16571     16570     16569     16572
     16571     16569     16572     16569     16572     16573     16569     16572     16574
     16569     16572     16575     16573     16572     16574     16573     16572     16575
     16574     16572     16575     16572     16575     16576     16572     16575     16577
     16572     16575     16578     16576     16575     16577     16576     16575     16578
     16577     16575     16578     16575     16578     16579     16575     16578     16580
     16575     16578     16581     16579     16578     16580     16579     16578     16581
     16580     16578     16581     16578     16581     16582     16578     16581     16583
     16578     16581     16584     16582     16581     16583     16582     16581     16584
     16583     16581     16584     16581     16584     16585     16581     16584     16586
     16581     16584     16587     16585     16584     16586     16585     16584     16587
     16586     16584     16587     16584     16587     16588     16584     16587     16589
     16584     16587     16590     16588     16587     16589     16588     16587     16590
     16589     16587     16590     16587     16590     16591     16587     16590     16592
     16587     16590     16593     16591     16590     16592     16591     16590     16593
     16592     16590     16593     16590     16593     16594     16590     16593     16595
     16590     16593     16596     16594     16593     16595     16594     16593     16596
     16595     16593     16596     16593     16596     16597     16593     16596     16598
     16593     16596     16599     16597     16596     16598     16597     16596     16599
     16598     16596     16599     16601     16600     16602     16601     16600     16603
     16601     16600     16604     16602     16600     16603     16602     16600     16604
     16603     16600     16604     16600     16604     16605     16600     16604     16606
     16600     16604     16607     16605     16604     16606     16605     16604     16607
     16606     16604     16607     16604     16607     16608     16604     16607     16609
     16604     16607     16614     16608     16607     16609     16608     16607     16614
     16609     16607     16614     16611     16610     16612     16611     16610     16613
     16611     16610     16614     16612     16610     16613     16612     16610     16614
     16613     16610     16614     16610     16613     16615     16607     16614     16610
     16613     16615     16616     16613     16615     16617     16613     16615     16618
     16616     16615     16617     16616     16615     16618     16617     16615     16618
     16615     16618     16619     16615     16618     16620     16615     16618     16626
     16619     16618     16620     16619     16618     16626     16620     16618     16626
     16618     16620     16621     16620     16621     16622     16620     16621     16623
     16622     16621     16623     16621     16623     16624     16621     16623     16625
     16621     16623     16635     16624     16623     16625     16624     16623     16635
     16625     16623     16635     16618     16626     16627     16618     16626     16628
     16618     16626     16629     16627     16626     16628     16627     16626     16629
     16628     16626     16629     16626     16629     16630     16629     16630     16631
     16629     16630     16632     16631     16630     16632     16630     16632     16633
     16630     16632     16634     16630     16632     16676     16633     16632     16634
     16633     16632     16676     16634     16632     16676     16623     16635     16636
     16623     16635     16637     16623     16635     16638     16636     16635     16637
     16636     16635     16638     16637     16635     16638     16635     16638     16639
     16635     16638     16640     16635     16638     16641     16639     16638     16640
     16639     16638     16641     16640     16638     16641     16638     16641     16642
     16638     16641     16643     16638     16641     16644     16642     16641     16643
     16642     16641     16644     16643     16641     16644     16641     16644     16645
     16641     16644     16646     16641     16644     16647     16645     16644     16646
     16645     16644     16647     16646     16644     16647     16644     16647     16648
     16644     16647     16649     16644     16647     16650     16648     16647     16649
     16648     16647     16650     16649     16647     16650     16647     16650     16651
     16647     16650     16652     16647     16650     16653     16651     16650     16652
     16651     16650     16653     16652     16650     16653     16650     16653     16654
     16650     16653     16655     16654     16653     16655     16653     16655     16656
     16653     16655     16657     16656     16655     16657     16655     16657     16658
     16655     16657     16659     16655     16657     16660     16658     16657     16659
     16658     16657     16660     16659     16657     16660     16657     16660     16661
     16657     16660     16662     16657     16660     16663     16661     16660     16662
     16661     16660     16663     16662     16660     16663     16660     16663     16664
     16660     16663     16665     16660     16663     16666     16664     16663     16665
     16664     16663     16666     16665     16663     16666     16663     16666     16667
     16663     16666     16668     16663     16666     16669     16667     16666     16668
     16667     16666     16669     16668     16666     16669     16666     16669     16670
     16666     16669     16671     16666     16669     16672     16670     16669     16671
     16670     16669     16672     16671     16669     16672     16669     16672     16673
     16669     16672     16674     16669     16672     16675     16673     16672     16674
     16673     16672     16675     16674     16672     16675     16632     16676     16677
     16632     16676     16678     16632     16676     16679     16677     16676     16678
     16677     16676     16679     16678     16676     16679     16676     16679     16680
     16676     16679     16681     16676     16679     16682     16680     16679     16681
     16680     16679     16682     16681     16679     16682     16679     16682     16683
     16679     16682     16684     16679     16682     16685     16683     16682     16684
     16683     16682     16685     16684     16682     16685     16682     16685     16686
     16682     16685     16687     16682     16685     16688     16686     16685     16687
     16686     16685     16688     16687     16685     16688     16685     16688     16689
     16685     16688     16690     16685     16688     16691     16689     16688     16690
     16689     16688     16691     16690     16688     16691     16688     16691     16692
     16688     16691     16693     16688     16691     16694     16692     16691     16693
     16692     16691     16694     16693     16691     16694     16691     16694     16695
     16691     16694     16696     16695     16694     16696     16694     16696     16697
     16694     16696     16698     16697     16696     16698     16696     16698     16699
     16696     16698     16700     16696     16698     16701     16699     16698     16700
     16699     16698     16701     16700     16698     16701     16698     16701     16702
     16698     16701     16703     16698     16701     16704     16702     16701     16703
     16702     16701     16704     16703     16701     16704     16701     16704     16705
     16701     16704     16706     16701     16704     16707     16705     16704     16706
     16705     16704     16707     16706     16704     16707     16704     16707     16708
     16704     16707     16709     16704     16707     16710     16708     16707     16709
     16708     16707     16710     16709     16707     16710     16707     16710     16711
     16707     16710     16712     16707     16710     16713     16711     16710     16712
     16711     16710     16713     16712     16710     16713     16710     16713     16714
     16710     16713     16715     16710     16713     16716     16714     16713     16715
     16714     16713     16716     16715     16713     16716     16713     16716     16717
     16713     16716     16718     16713     16716     16719     16717     16716     16718
     16717     16716     16719     16718     16716     16719     16716     16719     16720
     16716     16719     16721     16716     16719     16722     16720     16719     16721
     16720     16719     16722     16721     16719     16722     16724     16723     16725
     16724     16723     16726     16724     16723     16727     16725     16723     16726
     16725     16723     16727     16726     16723     16727     16723     16727     16728
     16723     16727     16729     16723     16727     16730     16728     16727     16729
     16728     16727     16730     16729     16727     16730     16727     16730     16731
     16727     16730     16732     16727     16730     16737     16731     16730     16732
     16731     16730     16737     16732     16730     16737     16734     16733     16735
     16734     16733     16736     16734     16733     16737     16735     16733     16736
     16735     16733     16737     16736     16733     16737     16733     16736     16738
     16730     16737     16733     16736     16738     16739     16736     16738     16740
     16736     16738     16741     16739     16738     16740     16739     16738     16741
     16740     16738     16741     16738     16741     16742     16738     16741     16743
     16738     16741     16749     16742     16741     16743     16742     16741     16749
     16743     16741     16749     16741     16743     16744     16743     16744     16745
     16743     16744     16746     16745     16744     16746     16744     16746     16747
     16744     16746     16748     16744     16746     16758     16747     16746     16748
     16747     16746     16758     16748     16746     16758     16741     16749     16750
     16741     16749     16751     16741     16749     16752     16750     16749     16751
     16750     16749     16752     16751     16749     16752     16749     16752     16753
     16752     16753     16754     16752     16753     16755     16754     16753     16755
     16753     16755     16756     16753     16755     16757     16753     16755     16805
     16756     16755     16757     16756     16755     16805     16757     16755     16805
     16746     16758     16759     16746     16758     16760     16746     16758     16761
     16759     16758     16760     16759     16758     16761     16760     16758     16761
     16758     16761     16762     16758     16761     16763     16758     16761     16764
     16762     16761     16763     16762     16761     16764     16763     16761     16764
     16761     16764     16765     16761     16764     16766     16761     16764     16767
     16765     16764     16766     16765     16764     16767     16766     16764     16767
     16764     16767     16768     16764     16767     16769     16764     16767     16770
     16768     16767     16769     16768     16767     16770     16769     16767     16770
     16767     16770     16771     16767     16770     16772     16767     16770     16773
     16771     16770     16772     16771     16770     16773     16772     16770     16773
     16770     16773     16774     16770     16773     16775     16770     16773     16776
     16774     16773     16775     16774     16773     16776     16775     16773     16776
     16773     16776     16777     16773     16776     16778     16777     16776     16778
     16776     16778     16779     16776     16778     16780     16779     16778     16780
     16778     16780     16781     16778     16780     16782     16778     16780     16783
     16781     16780     16782     16781     16780     16783     16782     16780     16783
     16780     16783     16784     16780     16783     16785     16780     16783     16786
     16784     16783     16785     16784     16783     16786     16785     16783     16786
     16783     16786     16787     16783     16786     16788     16783     16786     16789
     16787     16786     16788     16787     16786     16789     16788     16786     16789
     16786     16789     16790     16786     16789     16791     16786     16789     16792
     16790     16789     16791     16790     16789     16792     16791     16789     16792
     16789     16792     16793     16789     16792     16794     16789     16792     16795
     16793     16792     16794     16793     16792     16795     16794     16792     16795
     16792     16795     16796     16792     16795     16797     16792     16795     16798
     16796     16795     16797     16796     16795     16798     16797     16795     16798
     16795     16798     16799     16795     16798     16800     16795     16798     16801
     16799     16798     16800     16799     16798     16801     16800     16798     16801
     16798     16801     16802     16798     16801     16803     16798     16801     16804
     16802     16801     16803     16802     16801     16804     16803     16801     16804
     16755     16805     16806     16755     16805     16807     16755     16805     16808
     16806     16805     16807     16806     16805     16808     16807     16805     16808
     16805     16808     16809     16805     16808     16810     16805     16808     16811
     16809     16808     16810     16809     16808     16811     16810     16808     16811
     16808     16811     16812     16808     16811     16813     16808     16811     16814
     16812     16811     16813     16812     16811     16814     16813     16811     16814
     16811     16814     16815     16811     16814     16816     16811     16814     16817
     16815     16814     16816     16815     16814     16817     16816     16814     16817
     16814     16817     16818     16814     16817     16819     16814     16817     16820
     16818     16817     16819     16818     16817     16820     16819     16817     16820
     16817     16820     16821     16817     16820     16822     16817     16820     16823
     16821     16820     16822     16821     16820     16823     16822     16820     16823
     16820     16823     16824     16820     16823     16825     16820     16823     16826
     16824     16823     16825     16824     16823     16826     16825     16823     16826
     16823     16826     16827     16823     16826     16828     16823     16826     16829
     16827     16826     16828     16827     16826     16829     16828     16826     16829
     16826     16829     16830     16826     16829     16831     16826     16829     16832
     16830     16829     16831     16830     16829     16832     16831     16829     16832
     16829     16832     16833     16829     16832     16834     16829     16832     16835
     16833     16832     16834     16833     16832     16835     16834     16832     16835
     16832     16835     16836     16832     16835     16837     16832     16835     16838
     16836     16835     16837     16836     16835     16838     16837     16835     16838
     16835     16838     16839     16835     16838     16840     16835     16838     16841
     16839     16838     16840     16839     16838     16841     16840     16838     16841
     16838     16841     16842     16838     16841     16843     16838     16841     16844
     16842     16841     16843     16842     16841     16844     16843     16841     16844
     16841     16844     16845     16841     16844     16846     16841     16844     16847
     16845     16844     16846     16845     16844     16847     16846     16844     16847
     16849     16848     16850     16849     16848     16851     16849     16848     16852
     16850     16848     16851     16850     16848     16852     16851     16848     16852
     16848     16852     16853     16848     16852     16854     16848     16852     16855
     16853     16852     16854     16853     16852     16855     16854     16852     16855
     16852     16855     16856     16852     16855     16857     16852     16855     16862
     16856     16855     16857     16856     16855     16862     16857     16855     16862
     16859     16858     16860     16859     16858     16861     16859     16858     16862
     16860     16858     16861     16860     16858     16862     16861     16858     16862
     16858     16861     16863     16855     16862     16858     16861     16863     16864
     16861     16863     16865     16861     16863     16866     16864     16863     16865
     16864     16863     16866     16865     16863     16866     16863     16866     16867
     16863     16866     16868     16863     16866     16874     16867     16866     16868
     16867     16866     16874     16868     16866     16874     16866     16868     16869
     16868     16869     16870     16868     16869     16871     16870     16869     16871
     16869     16871     16872     16869     16871     16873     16869     16871     16883
     16872     16871     16873     16872     16871     16883     16873     16871     16883
     16866     16874     16875     16866     16874     16876     16866     16874     16877
     16875     16874     16876     16875     16874     16877     16876     16874     16877
     16874     16877     16878     16877     16878     16879     16877     16878     16880
     16879     16878     16880     16878     16880     16881     16878     16880     16882
     16878     16880     16924     16881     16880     16882     16881     16880     16924
     16882     16880     16924     16871     16883     16884     16871     16883     16885
     16871     16883     16886     16884     16883     16885     16884     16883     16886
     16885     16883     16886     16883     16886     16887     16883     16886     16888
     16883     16886     16889     16887     16886     16888     16887     16886     16889
     16888     16886     16889     16886     16889     16890     16886     16889     16891
     16886     16889     16892     16890     16889     16891     16890     16889     16892
     16891     16889     16892     16889     16892     16893     16889     16892     16894
     16889     16892     16895     16893     16892     16894     16893     16892     16895
     16894     16892     16895     16892     16895     16896     16892     16895     16897
     16892     16895     16898     16896     16895     16897     16896     16895     16898
     16897     16895     16898     16895     16898     16899     16895     16898     16900
     16895     16898     16901     16899     16898     16900     16899     16898     16901
     16900     16898     16901     16898     16901     16902     16898     16901     16903
     16902     16901     16903     16901     16903     16904     16901     16903     16905
     16904     16903     16905     16903     16905     16906     16903     16905     16907
     16903     16905     16908     16906     16905     16907     16906     16905     16908
     16907     16905     16908     16905     16908     16909     16905     16908     16910
     16905     16908     16911     16909     16908     16910     16909     16908     16911
     16910     16908     16911     16908     16911     16912     16908     16911     16913
     16908     16911     16914     16912     16911     16913     16912     16911     16914
     16913     16911     16914     16911     16914     16915     16911     16914     16916
     16911     16914     16917     16915     16914     16916     16915     16914     16917
     16916     16914     16917     16914     16917     16918     16914     16917     16919
     16914     16917     16920     16918     16917     16919     16918     16917     16920
     16919     16917     16920     16917     16920     16921     16917     16920     16922
     16917     16920     16923     16921     16920     16922     16921     16920     16923
     16922     16920     16923     16880     16924     16925     16880     16924     16926
     16880     16924     16927     16925     16924     16926     16925     16924     16927
     16926     16924     16927     16924     16927     16928     16924     16927     16929
     16924     16927     16930     16928     16927     16929     16928     16927     16930
     16929     16927     16930     16927     16930     16931     16927     16930     16932
     16927     16930     16933     16931     16930     16932     16931     16930     16933
     16932     16930     16933     16930     16933     16934     16930     16933     16935
     16930     16933     16936     16934     16933     16935     16934     16933     16936
     16935     16933     16936     16933     16936     16937     16933     16936     16938
     16933     16936     16939     16937     16936     16938     16937     16936     16939
     16938     16936     16939     16936     16939     16940     16936     16939     16941
     16936     16939     16942     16940     16939     16941     16940     16939     16942
     16941     16939     16942     16939     16942     16943     16939     16942     16944
     16943     16942     16944     16942     16944     16945     16942     16944     16946
     16945     16944     16946     16944     16946     16947     16944     16946     16948
     16944     16946     16949     16947     16946     16948     16947     16946     16949
     16948     16946     16949     16946     16949     16950     16946     16949     16951
     16946     16949     16952     16950     16949     16951     16950     16949     16952
     16951     16949     16952     16949     16952     16953     16949     16952     16954
     16949     16952     16955     16953     16952     16954     16953     16952     16955
     16954     16952     16955     16952     16955     16956     16952     16955     16957
     16952     16955     16958     16956     16955     16957     16956     16955     16958
     16957     16955     16958     16955     16958     16959     16955     16958     16960
     16955     16958     16961     16959     16958     16960     16959     16958     16961
     16960     16958     16961     16958     16961     16962     16958     16961     16963
     16958     16961     16964     16962     16961     16963     16962     16961     16964
     16963     16961     16964     16961     16964     16965     16961     16964     16966
     16961     16964     16967     16965     16964     16966     16965     16964     16967
     16966     16964     16967     16964     16967     16968     16964     16967     16969
     16964     16967     16970     16968     16967     16969     16968     16967     16970
     16969     16967     16970     16972     16971     16973     16972     16971     16974
     16972     16971     16975     16973     16971     16974     16973     16971     16975
     16974     16971     16975     16971     16975     16976     16971     16975     16977
     16971     16975     16978     16976     16975     16977     16976     16975     16978
     16977     16975     16978     16975     16978     16979     16975     16978     16980
     16975     16978     16985     16979     16978     16980     16979     16978     16985
     16980     16978     16985     16982     16981     16983     16982     16981     16984
     16982     16981     16985     16983     16981     16984     16983     16981     16985
     16984     16981     16985     16981     16984     16986     16978     16985     16981
     16984     16986     16987     16984     16986     16988     16984     16986     16989
     16987     16986     16988     16987     16986     16989     16988     16986     16989
     16986     16989     16990     16986     16989     16991     16986     16989     16997
     16990     16989     16991     16990     16989     16997     16991     16989     16997
     16989     16991     16992     16991     16992     16993     16991     16992     16994
     16993     16992     16994     16992     16994     16995     16992     16994     16996
     16992     16994     17006     16995     16994     16996     16995     16994     17006
     16996     16994     17006     16989     16997     16998     16989     16997     16999
     16989     16997     17000     16998     16997     16999     16998     16997     17000
     16999     16997     17000     16997     17000     17001     17000     17001     17002
     17000     17001     17003     17002     17001     17003     17001     17003     17004
     17001     17003     17005     17001     17003     17050     17004     17003     17005
     17004     17003     17050     17005     17003     17050     16994     17006     17007
     16994     17006     17008     16994     17006     17009     17007     17006     17008
     17007     17006     17009     17008     17006     17009     17006     17009     17010
     17006     17009     17011     17006     17009     17012     17010     17009     17011
     17010     17009     17012     17011     17009     17012     17009     17012     17013
     17009     17012     17014     17009     17012     17015     17013     17012     17014
     17013     17012     17015     17014     17012     17015     17012     17015     17016
     17012     17015     17017     17012     17015     17018     17016     17015     17017
     17016     17015     17018     17017     17015     17018     17015     17018     17019
     17015     17018     17020     17015     17018     17021     17019     17018     17020
     17019     17018     17021     17020     17018     17021     17018     17021     17022
     17018     17021     17023     17018     17021     17024     17022     17021     17023
     17022     17021     17024     17023     17021     17024     17021     17024     17025
     17021     17024     17026     17021     17024     17029     17025     17024     17026
     17025     17024     17029     17026     17024     17029     17024     17026     17027
     17024     17026     17028     17024     17026     17029     17027     17026     17028
     17027     17026     17029     17028     17026     17029     17024     17029     17026
     17024     17029     17030     17024     17029     17031     17026     17029     17030
     17026     17029     17031     17030     17029     17031     17029     17031     17032
     17029     17031     17033     17029     17031     17034     17032     17031     17033
     17032     17031     17034     17033     17031     17034     17031     17034     17035
     17031     17034     17036     17031     17034     17037     17035     17034     17036
     17035     17034     17037     17036     17034     17037     17034     17037     17038
     17034     17037     17039     17034     17037     17040     17038     17037     17039
     17038     17037     17040     17039     17037     17040     17037     17040     17041
     17037     17040     17042     17037     17040     17043     17041     17040     17042
     17041     17040     17043     17042     17040     17043     17040     17043     17044
     17040     17043     17045     17040     17043     17046     17044     17043     17045
     17044     17043     17046     17045     17043     17046     17043     17046     17047
     17043     17046     17048     17043     17046     17049     17047     17046     17048
     17047     17046     17049     17048     17046     17049     17003     17050     17051
     17003     17050     17052     17003     17050     17053     17051     17050     17052
     17051     17050     17053     17052     17050     17053     17050     17053     17054
     17050     17053     17055     17050     17053     17056     17054     17053     17055
     17054     17053     17056     17055     17053     17056     17053     17056     17057
     17053     17056     17058     17053     17056     17059     17057     17056     17058
     17057     17056     17059     17058     17056     17059     17056     17059     17060
     17056     17059     17061     17056     17059     17062     17060     17059     17061
     17060     17059     17062     17061     17059     17062     17059     17062     17063
     17059     17062     17064     17059     17062     17065     17063     17062     17064
     17063     17062     17065     17064     17062     17065     17062     17065     17066
     17062     17065     17067     17062     17065     17068     17066     17065     17067
     17066     17065     17068     17067     17065     17068     17065     17068     17069
     17065     17068     17070     17065     17068     17071     17069     17068     17070
     17069     17068     17071     17070     17068     17071     17068     17071     17072
     17068     17071     17073     17068     17071     17074     17072     17071     17073
     17072     17071     17074     17073     17071     17074     17071     17074     17075
     17071     17074     17076     17071     17074     17077     17075     17074     17076
     17075     17074     17077     17076     17074     17077     17074     17077     17078
     17074     17077     17079     17074     17077     17080     17078     17077     17079
     17078     17077     17080     17079     17077     17080     17077     17080     17081
     17077     17080     17082     17077     17080     17083     17081     17080     17082
     17081     17080     17083     17082     17080     17083     17080     17083     17084
     17080     17083     17085     17080     17083     17086     17084     17083     17085
     17084     17083     17086     17085     17083     17086     17083     17086     17087
     17083     17086     17088     17083     17086     17089     17087     17086     17088
     17087     17086     17089     17088     17086     17089     17086     17089     17090
     17086     17089     17091     17086     17089     17092     17090     17089     17091
     17090     17089     17092     17091     17089     17092     17094     17093     17095
     17094     17093     17096     17094     17093     17097     17095     17093     17096
     17095     17093     17097     17096     17093     17097     17093     17097     17098
     17093     17097     17099     17093     17097     17100     17098     17097     17099
     17098     17097     17100     17099     17097     17100     17097     17100     17101
     17097     17100     17102     17097     17100     17107     17101     17100     17102
     17101     17100     17107     17102     17100     17107     17104     17103     17105
     17104     17103     17106     17104     17103     17107     17105     17103     17106
     17105     17103     17107     17106     17103     17107     17103     17106     17108
     17100     17107     17103     17106     17108     17109     17106     17108     17110
     17106     17108     17111     17109     17108     17110     17109     17108     17111
     17110     17108     17111     17108     17111     17112     17108     17111     17113
     17108     17111     17119     17112     17111     17113     17112     17111     17119
     17113     17111     17119     17111     17113     17114     17113     17114     17115
     17113     17114     17116     17115     17114     17116     17114     17116     17117
     17114     17116     17118     17114     17116     17128     17117     17116     17118
     17117     17116     17128     17118     17116     17128     17111     17119     17120
     17111     17119     17121     17111     17119     17122     17120     17119     17121
     17120     17119     17122     17121     17119     17122     17119     17122     17123
     17122     17123     17124     17122     17123     17125     17124     17123     17125
     17123     17125     17126     17123     17125     17127     17123     17125     17175
     17126     17125     17127     17126     17125     17175     17127     17125     17175
     17116     17128     17129     17116     17128     17130     17116     17128     17131
     17129     17128     17130     17129     17128     17131     17130     17128     17131
     17128     17131     17132     17128     17131     17133     17128     17131     17134
     17132     17131     17133     17132     17131     17134     17133     17131     17134
     17131     17134     17135     17131     17134     17136     17131     17134     17137
     17135     17134     17136     17135     17134     17137     17136     17134     17137
     17134     17137     17138     17134     17137     17139     17134     17137     17140
     17138     17137     17139     17138     17137     17140     17139     17137     17140
     17137     17140     17141     17137     17140     17142     17137     17140     17143
     17141     17140     17142     17141     17140     17143     17142     17140     17143
     17140     17143     17144     17140     17143     17145     17140     17143     17146
     17144     17143     17145     17144     17143     17146     17145     17143     17146
     17143     17146     17147     17143     17146     17148     17147     17146     17148
     17146     17148     17149     17146     17148     17150     17149     17148     17150
     17148     17150     17151     17148     17150     17152     17148     17150     17153
     17151     17150     17152     17151     17150     17153     17152     17150     17153
     17150     17153     17154     17150     17153     17155     17150     17153     17156
     17154     17153     17155     17154     17153     17156     17155     17153     17156
     17153     17156     17157     17153     17156     17158     17153     17156     17159
     17157     17156     17158     17157     17156     17159     17158     17156     17159
     17156     17159     17160     17156     17159     17161     17156     17159     17162
     17160     17159     17161     17160     17159     17162     17161     17159     17162
     17159     17162     17163     17159     17162     17164     17159     17162     17165
     17163     17162     17164     17163     17162     17165     17164     17162     17165
     17162     17165     17166     17162     17165     17167     17162     17165     17168
     17166     17165     17167     17166     17165     17168     17167     17165     17168
     17165     17168     17169     17165     17168     17170     17165     17168     17171
     17169     17168     17170     17169     17168     17171     17170     17168     17171
     17168     17171     17172     17168     17171     17173     17168     17171     17174
     17172     17171     17173     17172     17171     17174     17173     17171     17174
     17125     17175     17176     17125     17175     17177     17125     17175     17178
     17176     17175     17177     17176     17175     17178     17177     17175     17178
     17175     17178     17179     17175     17178     17180     17175     17178     17181
     17179     17178     17180     17179     17178     17181     17180     17178     17181
     17178     17181     17182     17178     17181     17183     17178     17181     17184
     17182     17181     17183     17182     17181     17184     17183     17181     17184
     17181     17184     17185     17181     17184     17186     17181     17184     17187
     17185     17184     17186     17185     17184     17187     17186     17184     17187
     17184     17187     17188     17184     17187     17189     17184     17187     17190
     17188     17187     17189     17188     17187     17190     17189     17187     17190
     17187     17190     17191     17187     17190     17192     17187     17190     17193
     17191     17190     17192     17191     17190     17193     17192     17190     17193
     17190     17193     17194     17190     17193     17195     17190     17193     17196
     17194     17193     17195     17194     17193     17196     17195     17193     17196
     17193     17196     17197     17193     17196     17198     17193     17196     17199
     17197     17196     17198     17197     17196     17199     17198     17196     17199
     17196     17199     17200     17196     17199     17201     17196     17199     17202
     17200     17199     17201     17200     17199     17202     17201     17199     17202
     17199     17202     17203     17199     17202     17204     17199     17202     17205
     17203     17202     17204     17203     17202     17205     17204     17202     17205
     17202     17205     17206     17202     17205     17207     17202     17205     17208
     17206     17205     17207     17206     17205     17208     17207     17205     17208
     17205     17208     17209     17205     17208     17210     17205     17208     17211
     17209     17208     17210     17209     17208     17211     17210     17208     17211
     17208     17211     17212     17208     17211     17213     17208     17211     17214
     17212     17211     17213     17212     17211     17214     17213     17211     17214
     17211     17214     17215     17211     17214     17216     17211     17214     17217
     17215     17214     17216     17215     17214     17217     17216     17214     17217
     17219     17218     17220     17219     17218     17221     17219     17218     17222
     17220     17218     17221     17220     17218     17222     17221     17218     17222
     17218     17222     17223     17218     17222     17224     17218     17222     17225
     17223     17222     17224     17223     17222     17225     17224     17222     17225
     17222     17225     17226     17222     17225     17227     17222     17225     17232
     17226     17225     17227     17226     17225     17232     17227     17225     17232
     17229     17228     17230     17229     17228     17231     17229     17228     17232
     17230     17228     17231     17230     17228     17232     17231     17228     17232
     17228     17231     17233     17225     17232     17228     17231     17233     17234
     17231     17233     17235     17231     17233     17236     17234     17233     17235
     17234     17233     17236     17235     17233     17236     17233     17236     17237
     17233     17236     17238     17233     17236     17244     17237     17236     17238
     17237     17236     17244     17238     17236     17244     17236     17238     17239
     17238     17239     17240     17238     17239     17241     17240     17239     17241
     17239     17241     17242     17239     17241     17243     17239     17241     17253
     17242     17241     17243     17242     17241     17253     17243     17241     17253
     17236     17244     17245     17236     17244     17246     17236     17244     17247
     17245     17244     17246     17245     17244     17247     17246     17244     17247
     17244     17247     17248     17247     17248     17249     17247     17248     17250
     17249     17248     17250     17248     17250     17251     17248     17250     17252
     17248     17250     17297     17251     17250     17252     17251     17250     17297
     17252     17250     17297     17241     17253     17254     17241     17253     17255
     17241     17253     17256     17254     17253     17255     17254     17253     17256
     17255     17253     17256     17253     17256     17257     17253     17256     17258
     17253     17256     17259     17257     17256     17258     17257     17256     17259
     17258     17256     17259     17256     17259     17260     17256     17259     17261
     17256     17259     17262     17260     17259     17261     17260     17259     17262
     17261     17259     17262     17259     17262     17263     17259     17262     17264
     17259     17262     17265     17263     17262     17264     17263     17262     17265
     17264     17262     17265     17262     17265     17266     17262     17265     17267
     17262     17265     17268     17266     17265     17267     17266     17265     17268
     17267     17265     17268     17265     17268     17269     17265     17268     17270
     17265     17268     17271     17269     17268     17270     17269     17268     17271
     17270     17268     17271     17268     17271     17272     17268     17271     17273
     17268     17271     17276     17272     17271     17273     17272     17271     17276
     17273     17271     17276     17271     17273     17274     17271     17273     17275
     17271     17273     17276     17274     17273     17275     17274     17273     17276
     17275     17273     17276     17271     17276     17273     17271     17276     17277
     17271     17276     17278     17273     17276     17277     17273     17276     17278
     17277     17276     17278     17276     17278     17279     17276     17278     17280
     17276     17278     17281     17279     17278     17280     17279     17278     17281
     17280     17278     17281     17278     17281     17282     17278     17281     17283
     17278     17281     17284     17282     17281     17283     17282     17281     17284
     17283     17281     17284     17281     17284     17285     17281     17284     17286
     17281     17284     17287     17285     17284     17286     17285     17284     17287
     17286     17284     17287     17284     17287     17288     17284     17287     17289
     17284     17287     17290     17288     17287     17289     17288     17287     17290
     17289     17287     17290     17287     17290     17291     17287     17290     17292
     17287     17290     17293     17291     17290     17292     17291     17290     17293
     17292     17290     17293     17290     17293     17294     17290     17293     17295
     17290     17293     17296     17294     17293     17295     17294     17293     17296
     17295     17293     17296     17250     17297     17298     17250     17297     17299
     17250     17297     17300     17298     17297     17299     17298     17297     17300
     17299     17297     17300     17297     17300     17301     17297     17300     17302
     17297     17300     17303     17301     17300     17302     17301     17300     17303
     17302     17300     17303     17300     17303     17304     17300     17303     17305
     17300     17303     17306     17304     17303     17305     17304     17303     17306
     17305     17303     17306     17303     17306     17307     17303     17306     17308
     17303     17306     17309     17307     17306     17308     17307     17306     17309
     17308     17306     17309     17306     17309     17310     17306     17309     17311
     17306     17309     17312     17310     17309     17311     17310     17309     17312
     17311     17309     17312     17309     17312     17313     17309     17312     17314
     17309     17312     17315     17313     17312     17314     17313     17312     17315
     17314     17312     17315     17312     17315     17316     17312     17315     17317
     17312     17315     17318     17316     17315     17317     17316     17315     17318
     17317     17315     17318     17315     17318     17319     17315     17318     17320
     17315     17318     17321     17319     17318     17320     17319     17318     17321
     17320     17318     17321     17318     17321     17322     17318     17321     17323
     17318     17321     17324     17322     17321     17323     17322     17321     17324
     17323     17321     17324     17321     17324     17325     17321     17324     17326
     17321     17324     17327     17325     17324     17326     17325     17324     17327
     17326     17324     17327     17324     17327     17328     17324     17327     17329
     17324     17327     17330     17328     17327     17329     17328     17327     17330
     17329     17327     17330     17327     17330     17331     17327     17330     17332
     17327     17330     17333     17331     17330     17332     17331     17330     17333
     17332     17330     17333     17330     17333     17334     17330     17333     17335
     17330     17333     17336     17334     17333     17335     17334     17333     17336
     17335     17333     17336     17333     17336     17337     17333     17336     17338
     17333     17336     17339     17337     17336     17338     17337     17336     17339
     17338     17336     17339     17341     17340     17342     17341     17340     17343
     17341     17340     17345     17342     17340     17343     17342     17340     17345
     17343     17340     17345     17340     17343     17344     17340     17345     17346
     17340     17345     17347     17340     17345     17349     17346     17345     17347
     17346     17345     17349     17347     17345     17349     17345     17347     17348
     17345     17349     17350     17345     17349     17351     17345     17349     17356
     17350     17349     17351     17350     17349     17356     17351     17349     17356
     17353     17352     17354     17353     17352     17355     17353     17352     17356
     17354     17352     17355     17354     17352     17356     17355     17352     17356
     17352     17355     17357     17349     17356     17352     17355     17357     17358
     17355     17357     17359     17355     17357     17360     17358     17357     17359
     17358     17357     17360     17359     17357     17360     17357     17360     17361
     17357     17360     17362     17357     17360     17368     17361     17360     17362
     17361     17360     17368     17362     17360     17368     17360     17362     17363
     17362     17363     17364     17362     17363     17365     17364     17363     17365
     17363     17365     17366     17363     17365     17367     17363     17365     17377
     17366     17365     17367     17366     17365     17377     17367     17365     17377
     17360     17368     17369     17360     17368     17370     17360     17368     17371
     17369     17368     17370     17369     17368     17371     17370     17368     17371
     17368     17371     17372     17371     17372     17373     17371     17372     17374
     17373     17372     17374     17372     17374     17375     17372     17374     17376
     17372     17374     17421     17375     17374     17376     17375     17374     17421
     17376     17374     17421     17365     17377     17378     17365     17377     17379
     17365     17377     17380     17378     17377     17379     17378     17377     17380
     17379     17377     17380     17377     17380     17381     17377     17380     17382
     17377     17380     17383     17381     17380     17382     17381     17380     17383
     17382     17380     17383     17380     17383     17384     17380     17383     17385
     17380     17383     17386     17384     17383     17385     17384     17383     17386
     17385     17383     17386     17383     17386     17387     17383     17386     17388
     17383     17386     17389     17387     17386     17388     17387     17386     17389
     17388     17386     17389     17386     17389     17390     17386     17389     17391
     17386     17389     17392     17390     17389     17391     17390     17389     17392
     17391     17389     17392     17389     17392     17393     17389     17392     17394
     17389     17392     17395     17393     17392     17394     17393     17392     17395
     17394     17392     17395     17392     17395     17396     17392     17395     17397
     17392     17395     17400     17396     17395     17397     17396     17395     17400
     17397     17395     17400     17395     17397     17398     17395     17397     17399
     17395     17397     17400     17398     17397     17399     17398     17397     17400
     17399     17397     17400     17395     17400     17397     17395     17400     17401
     17395     17400     17402     17397     17400     17401     17397     17400     17402
     17401     17400     17402     17400     17402     17403     17400     17402     17404
     17400     17402     17405     17403     17402     17404     17403     17402     17405
     17404     17402     17405     17402     17405     17406     17402     17405     17407
     17402     17405     17408     17406     17405     17407     17406     17405     17408
     17407     17405     17408     17405     17408     17409     17405     17408     17410
     17405     17408     17411     17409     17408     17410     17409     17408     17411
     17410     17408     17411     17408     17411     17412     17408     17411     17413
     17408     17411     17414     17412     17411     17413     17412     17411     17414
     17413     17411     17414     17411     17414     17415     17411     17414     17416
     17411     17414     17417     17415     17414     17416     17415     17414     17417
     17416     17414     17417     17414     17417     17418     17414     17417     17419
     17414     17417     17420     17418     17417     17419     17418     17417     17420
     17419     17417     17420     17374     17421     17422     17374     17421     17423
     17374     17421     17424     17422     17421     17423     17422     17421     17424
     17423     17421     17424     17421     17424     17425     17421     17424     17426
     17421     17424     17427     17425     17424     17426     17425     17424     17427
     17426     17424     17427     17424     17427     17428     17424     17427     17429
     17424     17427     17430     17428     17427     17429     17428     17427     17430
     17429     17427     17430     17427     17430     17431     17427     17430     17432
     17427     17430     17433     17431     17430     17432     17431     17430     17433
     17432     17430     17433     17430     17433     17434     17430     17433     17435
     17430     17433     17436     17434     17433     17435     17434     17433     17436
     17435     17433     17436     17433     17436     17437     17433     17436     17438
     17433     17436     17439     17437     17436     17438     17437     17436     17439
     17438     17436     17439     17436     17439     17440     17436     17439     17441
     17436     17439     17442     17440     17439     17441     17440     17439     17442
     17441     17439     17442     17439     17442     17443     17439     17442     17444
     17439     17442     17445     17443     17442     17444     17443     17442     17445
     17444     17442     17445     17442     17445     17446     17442     17445     17447
     17442     17445     17448     17446     17445     17447     17446     17445     17448
     17447     17445     17448     17445     17448     17449     17445     17448     17450
     17445     17448     17451     17449     17448     17450     17449     17448     17451
     17450     17448     17451     17448     17451     17452     17448     17451     17453
     17448     17451     17454     17452     17451     17453     17452     17451     17454
     17453     17451     17454     17451     17454     17455     17451     17454     17456
     17451     17454     17457     17455     17454     17456     17455     17454     17457
     17456     17454     17457     17454     17457     17458     17454     17457     17459
     17454     17457     17460     17458     17457     17459     17458     17457     17460
     17459     17457     17460     17457     17460     17461     17457     17460     17462
     17457     17460     17463     17461     17460     17462     17461     17460     17463
     17462     17460     17463     17465     17464     17466     17465     17464     17467
     17465     17464     17468     17466     17464     17467     17466     17464     17468
     17467     17464     17468     17464     17468     17469     17464     17468     17470
     17464     17468     17471     17469     17468     17470     17469     17468     17471
     17470     17468     17471     17468     17471     17472     17468     17471     17473
     17468     17471     17478     17472     17471     17473     17472     17471     17478
     17473     17471     17478     17475     17474     17476     17475     17474     17477
     17475     17474     17478     17476     17474     17477     17476     17474     17478
     17477     17474     17478     17474     17477     17479     17471     17478     17474
     17477     17479     17480     17477     17479     17481     17477     17479     17482
     17480     17479     17481     17480     17479     17482     17481     17479     17482
     17479     17482     17483     17479     17482     17484     17479     17482     17490
     17483     17482     17484     17483     17482     17490     17484     17482     17490
     17482     17484     17485     17484     17485     17486     17484     17485     17487
     17486     17485     17487     17485     17487     17488     17485     17487     17489
     17485     17487     17499     17488     17487     17489     17488     17487     17499
     17489     17487     17499     17482     17490     17491     17482     17490     17492
     17482     17490     17493     17491     17490     17492     17491     17490     17493
     17492     17490     17493     17490     17493     17494     17493     17494     17495
     17493     17494     17496     17495     17494     17496     17494     17496     17497
     17494     17496     17498     17494     17496     17543     17497     17496     17498
     17497     17496     17543     17498     17496     17543     17487     17499     17500
     17487     17499     17501     17487     17499     17502     17500     17499     17501
     17500     17499     17502     17501     17499     17502     17499     17502     17503
     17499     17502     17504     17499     17502     17505     17503     17502     17504
     17503     17502     17505     17504     17502     17505     17502     17505     17506
     17502     17505     17507     17502     17505     17508     17506     17505     17507
     17506     17505     17508     17507     17505     17508     17505     17508     17509
     17505     17508     17510     17505     17508     17511     17509     17508     17510
     17509     17508     17511     17510     17508     17511     17508     17511     17512
     17508     17511     17513     17508     17511     17514     17512     17511     17513
     17512     17511     17514     17513     17511     17514     17511     17514     17515
     17511     17514     17516     17511     17514     17517     17515     17514     17516
     17515     17514     17517     17516     17514     17517     17514     17517     17518
     17514     17517     17519     17514     17517     17522     17518     17517     17519
     17518     17517     17522     17519     17517     17522     17517     17519     17520
     17517     17519     17521     17517     17519     17522     17520     17519     17521
     17520     17519     17522     17521     17519     17522     17517     17522     17519
     17517     17522     17523     17517     17522     17524     17519     17522     17523
     17519     17522     17524     17523     17522     17524     17522     17524     17525
     17522     17524     17526     17522     17524     17527     17525     17524     17526
     17525     17524     17527     17526     17524     17527     17524     17527     17528
     17524     17527     17529     17524     17527     17530     17528     17527     17529
     17528     17527     17530     17529     17527     17530     17527     17530     17531
     17527     17530     17532     17527     17530     17533     17531     17530     17532
     17531     17530     17533     17532     17530     17533     17530     17533     17534
     17530     17533     17535     17530     17533     17536     17534     17533     17535
     17534     17533     17536     17535     17533     17536     17533     17536     17537
     17533     17536     17538     17533     17536     17539     17537     17536     17538
     17537     17536     17539     17538     17536     17539     17536     17539     17540
     17536     17539     17541     17536     17539     17542     17540     17539     17541
     17540     17539     17542     17541     17539     17542     17496     17543     17544
     17496     17543     17545     17496     17543     17546     17544     17543     17545
     17544     17543     17546     17545     17543     17546     17543     17546     17547
     17543     17546     17548     17543     17546     17549     17547     17546     17548
     17547     17546     17549     17548     17546     17549     17546     17549     17550
     17546     17549     17551     17546     17549     17552     17550     17549     17551
     17550     17549     17552     17551     17549     17552     17549     17552     17553
     17549     17552     17554     17549     17552     17555     17553     17552     17554
     17553     17552     17555     17554     17552     17555     17552     17555     17556
     17552     17555     17557     17552     17555     17558     17556     17555     17557
     17556     17555     17558     17557     17555     17558     17555     17558     17559
     17555     17558     17560     17555     17558     17561     17559     17558     17560
     17559     17558     17561     17560     17558     17561     17558     17561     17562
     17558     17561     17563     17558     17561     17564     17562     17561     17563
     17562     17561     17564     17563     17561     17564     17561     17564     17565
     17561     17564     17566     17561     17564     17567     17565     17564     17566
     17565     17564     17567     17566     17564     17567     17564     17567     17568
     17564     17567     17569     17564     17567     17570     17568     17567     17569
     17568     17567     17570     17569     17567     17570     17567     17570     17571
     17567     17570     17572     17567     17570     17573     17571     17570     17572
     17571     17570     17573     17572     17570     17573     17570     17573     17574
     17570     17573     17575     17570     17573     17576     17574     17573     17575
     17574     17573     17576     17575     17573     17576     17573     17576     17577
     17573     17576     17578     17573     17576     17579     17577     17576     17578
     17577     17576     17579     17578     17576     17579     17576     17579     17580
     17576     17579     17581     17576     17579     17582     17580     17579     17581
     17580     17579     17582     17581     17579     17582     17579     17582     17583
     17579     17582     17584     17579     17582     17585     17583     17582     17584
     17583     17582     17585     17584     17582     17585     17587     17586     17588
     17587     17586     17589     17587     17586     17591     17588     17586     17589
     17588     17586     17591     17589     17586     17591     17586     17589     17590
     17586     17591     17592     17586     17591     17593     17586     17591     17595
     17592     17591     17593     17592     17591     17595     17593     17591     17595
     17591     17593     17594     17591     17595     17596     17591     17595     17597
     17591     17595     17602     17596     17595     17597     17596     17595     17602
     17597     17595     17602     17599     17598     17600     17599     17598     17601
     17599     17598     17602     17600     17598     17601     17600     17598     17602
     17601     17598     17602     17598     17601     17603     17595     17602     17598
     17601     17603     17604     17601     17603     17605     17601     17603     17606
     17604     17603     17605     17604     17603     17606     17605     17603     17606
     17603     17606     17607     17603     17606     17608     17603     17606     17614
     17607     17606     17608     17607     17606     17614     17608     17606     17614
     17606     17608     17609     17608     17609     17610     17608     17609     17611
     17610     17609     17611     17609     17611     17612     17609     17611     17613
     17609     17611     17623     17612     17611     17613     17612     17611     17623
     17613     17611     17623     17606     17614     17615     17606     17614     17616
     17606     17614     17617     17615     17614     17616     17615     17614     17617
     17616     17614     17617     17614     17617     17618     17617     17618     17619
     17617     17618     17620     17619     17618     17620     17618     17620     17621
     17618     17620     17622     17618     17620     17667     17621     17620     17622
     17621     17620     17667     17622     17620     17667     17611     17623     17624
     17611     17623     17625     17611     17623     17626     17624     17623     17625
     17624     17623     17626     17625     17623     17626     17623     17626     17627
     17623     17626     17628     17623     17626     17629     17627     17626     17628
     17627     17626     17629     17628     17626     17629     17626     17629     17630
     17626     17629     17631     17626     17629     17632     17630     17629     17631
     17630     17629     17632     17631     17629     17632     17629     17632     17633
     17629     17632     17634     17629     17632     17635     17633     17632     17634
     17633     17632     17635     17634     17632     17635     17632     17635     17636
     17632     17635     17637     17632     17635     17638     17636     17635     17637
     17636     17635     17638     17637     17635     17638     17635     17638     17639
     17635     17638     17640     17635     17638     17641     17639     17638     17640
     17639     17638     17641     17640     17638     17641     17638     17641     17642
     17638     17641     17643     17638     17641     17646     17642     17641     17643
     17642     17641     17646     17643     17641     17646     17641     17643     17644
     17641     17643     17645     17641     17643     17646     17644     17643     17645
     17644     17643     17646     17645     17643     17646     17641     17646     17643
     17641     17646     17647     17641     17646     17648     17643     17646     17647
     17643     17646     17648     17647     17646     17648     17646     17648     17649
     17646     17648     17650     17646     17648     17651     17649     17648     17650
     17649     17648     17651     17650     17648     17651     17648     17651     17652
     17648     17651     17653     17648     17651     17654     17652     17651     17653
     17652     17651     17654     17653     17651     17654     17651     17654     17655
     17651     17654     17656     17651     17654     17657     17655     17654     17656
     17655     17654     17657     17656     17654     17657     17654     17657     17658
     17654     17657     17659     17654     17657     17660     17658     17657     17659
     17658     17657     17660     17659     17657     17660     17657     17660     17661
     17657     17660     17662     17657     17660     17663     17661     17660     17662
     17661     17660     17663     17662     17660     17663     17660     17663     17664
     17660     17663     17665     17660     17663     17666     17664     17663     17665
     17664     17663     17666     17665     17663     17666     17620     17667     17668
     17620     17667     17669     17620     17667     17670     17668     17667     17669
     17668     17667     17670     17669     17667     17670     17667     17670     17671
     17667     17670     17672     17667     17670     17673     17671     17670     17672
     17671     17670     17673     17672     17670     17673     17670     17673     17674
     17670     17673     17675     17670     17673     17676     17674     17673     17675
     17674     17673     17676     17675     17673     17676     17673     17676     17677
     17673     17676     17678     17673     17676     17679     17677     17676     17678
     17677     17676     17679     17678     17676     17679     17676     17679     17680
     17676     17679     17681     17676     17679     17682     17680     17679     17681
     17680     17679     17682     17681     17679     17682     17679     17682     17683
     17679     17682     17684     17679     17682     17685     17683     17682     17684
     17683     17682     17685     17684     17682     17685     17682     17685     17686
     17682     17685     17687     17682     17685     17688     17686     17685     17687
     17686     17685     17688     17687     17685     17688     17685     17688     17689
     17685     17688     17690     17685     17688     17691     17689     17688     17690
     17689     17688     17691     17690     17688     17691     17688     17691     17692
     17688     17691     17693     17688     17691     17694     17692     17691     17693
     17692     17691     17694     17693     17691     17694     17691     17694     17695
     17691     17694     17696     17691     17694     17697     17695     17694     17696
     17695     17694     17697     17696     17694     17697     17694     17697     17698
     17694     17697     17699     17694     17697     17700     17698     17697     17699
     17698     17697     17700     17699     17697     17700     17697     17700     17701
     17697     17700     17702     17697     17700     17703     17701     17700     17702
     17701     17700     17703     17702     17700     17703     17700     17703     17704
     17700     17703     17705     17700     17703     17706     17704     17703     17705
     17704     17703     17706     17705     17703     17706     17703     17706     17707
     17703     17706     17708     17703     17706     17709     17707     17706     17708
     17707     17706     17709     17708     17706     17709     17711     17710     17712
     17711     17710     17713     17711     17710     17714     17712     17710     17713
     17712     17710     17714     17713     17710     17714     17710     17714     17715
     17710     17714     17716     17710     17714     17717     17715     17714     17716
     17715     17714     17717     17716     17714     17717     17714     17717     17718
     17714     17717     17719     17714     17717     17724     17718     17717     17719
     17718     17717     17724     17719     17717     17724     17721     17720     17722
     17721     17720     17723     17721     17720     17724     17722     17720     17723
     17722     17720     17724     17723     17720     17724     17720     17723     17725
     17717     17724     17720     17723     17725     17726     17723     17725     17727
     17723     17725     17728     17726     17725     17727     17726     17725     17728
     17727     17725     17728     17725     17728     17729     17725     17728     17730
     17725     17728     17736     17729     17728     17730     17729     17728     17736
     17730     17728     17736     17728     17730     17731     17730     17731     17732
     17730     17731     17733     17732     17731     17733     17731     17733     17734
     17731     17733     17735     17731     17733     17745     17734     17733     17735
     17734     17733     17745     17735     17733     17745     17728     17736     17737
     17728     17736     17738     17728     17736     17739     17737     17736     17738
     17737     17736     17739     17738     17736     17739     17736     17739     17740
     17739     17740     17741     17739     17740     17742     17741     17740     17742
     17740     17742     17743     17740     17742     17744     17740     17742     17789
     17743     17742     17744     17743     17742     17789     17744     17742     17789
     17733     17745     17746     17733     17745     17747     17733     17745     17748
     17746     17745     17747     17746     17745     17748     17747     17745     17748
     17745     17748     17749     17745     17748     17750     17745     17748     17751
     17749     17748     17750     17749     17748     17751     17750     17748     17751
     17748     17751     17752     17748     17751     17753     17748     17751     17754
     17752     17751     17753     17752     17751     17754     17753     17751     17754
     17751     17754     17755     17751     17754     17756     17751     17754     17757
     17755     17754     17756     17755     17754     17757     17756     17754     17757
     17754     17757     17758     17754     17757     17759     17754     17757     17760
     17758     17757     17759     17758     17757     17760     17759     17757     17760
     17757     17760     17761     17757     17760     17762     17757     17760     17763
     17761     17760     17762     17761     17760     17763     17762     17760     17763
     17760     17763     17764     17760     17763     17765     17760     17763     17768
     17764     17763     17765     17764     17763     17768     17765     17763     17768
     17763     17765     17766     17763     17765     17767     17763     17765     17768
     17766     17765     17767     17766     17765     17768     17767     17765     17768
     17763     17768     17765     17763     17768     17769     17763     17768     17770
     17765     17768     17769     17765     17768     17770     17769     17768     17770
     17768     17770     17771     17768     17770     17772     17768     17770     17773
     17771     17770     17772     17771     17770     17773     17772     17770     17773
     17770     17773     17774     17770     17773     17775     17770     17773     17776
     17774     17773     17775     17774     17773     17776     17775     17773     17776
     17773     17776     17777     17773     17776     17778     17773     17776     17779
     17777     17776     17778     17777     17776     17779     17778     17776     17779
     17776     17779     17780     17776     17779     17781     17776     17779     17782
     17780     17779     17781     17780     17779     17782     17781     17779     17782
     17779     17782     17783     17779     17782     17784     17779     17782     17785
     17783     17782     17784     17783     17782     17785     17784     17782     17785
     17782     17785     17786     17782     17785     17787     17782     17785     17788
     17786     17785     17787     17786     17785     17788     17787     17785     17788
     17742     17789     17790     17742     17789     17791     17742     17789     17792
     17790     17789     17791     17790     17789     17792     17791     17789     17792
     17789     17792     17793     17789     17792     17794     17789     17792     17795
     17793     17792     17794     17793     17792     17795     17794     17792     17795
     17792     17795     17796     17792     17795     17797     17792     17795     17798
     17796     17795     17797     17796     17795     17798     17797     17795     17798
     17795     17798     17799     17795     17798     17800     17795     17798     17801
     17799     17798     17800     17799     17798     17801     17800     17798     17801
     17798     17801     17802     17798     17801     17803     17798     17801     17804
     17802     17801     17803     17802     17801     17804     17803     17801     17804
     17801     17804     17805     17801     17804     17806     17801     17804     17807
     17805     17804     17806     17805     17804     17807     17806     17804     17807
     17804     17807     17808     17804     17807     17809     17804     17807     17810
     17808     17807     17809     17808     17807     17810     17809     17807     17810
     17807     17810     17811     17807     17810     17812     17807     17810     17813
     17811     17810     17812     17811     17810     17813     17812     17810     17813
     17810     17813     17814     17810     17813     17815     17810     17813     17816
     17814     17813     17815     17814     17813     17816     17815     17813     17816
     17813     17816     17817     17813     17816     17818     17813     17816     17819
     17817     17816     17818     17817     17816     17819     17818     17816     17819
     17816     17819     17820     17816     17819     17821     17816     17819     17822
     17820     17819     17821     17820     17819     17822     17821     17819     17822
     17819     17822     17823     17819     17822     17824     17819     17822     17825
     17823     17822     17824     17823     17822     17825     17824     17822     17825
     17822     17825     17826     17822     17825     17827     17822     17825     17828
     17826     17825     17827     17826     17825     17828     17827     17825     17828
     17825     17828     17829     17825     17828     17830     17825     17828     17831
     17829     17828     17830     17829     17828     17831     17830     17828     17831
     17833     17832     17834     17833     17832     17835     17833     17832     17836
     17834     17832     17835     17834     17832     17836     17835     17832     17836
     17832     17836     17837     17832     17836     17838     17832     17836     17839
     17837     17836     17838     17837     17836     17839     17838     17836     17839
     17836     17839     17840     17836     17839     17841     17836     17839     17846
     17840     17839     17841     17840     17839     17846     17841     17839     17846
     17843     17842     17844     17843     17842     17845     17843     17842     17846
     17844     17842     17845     17844     17842     17846     17845     17842     17846
     17842     17845     17847     17839     17846     17842     17845     17847     17848
     17845     17847     17849     17845     17847     17850     17848     17847     17849
     17848     17847     17850     17849     17847     17850     17847     17850     17851
     17847     17850     17852     17847     17850     17858     17851     17850     17852
     17851     17850     17858     17852     17850     17858     17850     17852     17853
     17852     17853     17854     17852     17853     17855     17854     17853     17855
     17853     17855     17856     17853     17855     17857     17853     17855     17867
     17856     17855     17857     17856     17855     17867     17857     17855     17867
     17850     17858     17859     17850     17858     17860     17850     17858     17861
     17859     17858     17860     17859     17858     17861     17860     17858     17861
     17858     17861     17862     17861     17862     17863     17861     17862     17864
     17863     17862     17864     17862     17864     17865     17862     17864     17866
     17862     17864     17911     17865     17864     17866     17865     17864     17911
     17866     17864     17911     17855     17867     17868     17855     17867     17869
     17855     17867     17870     17868     17867     17869     17868     17867     17870
     17869     17867     17870     17867     17870     17871     17867     17870     17872
     17867     17870     17873     17871     17870     17872     17871     17870     17873
     17872     17870     17873     17870     17873     17874     17870     17873     17875
     17870     17873     17876     17874     17873     17875     17874     17873     17876
     17875     17873     17876     17873     17876     17877     17873     17876     17878
     17873     17876     17879     17877     17876     17878     17877     17876     17879
     17878     17876     17879     17876     17879     17880     17876     17879     17881
     17876     17879     17882     17880     17879     17881     17880     17879     17882
     17881     17879     17882     17879     17882     17883     17879     17882     17884
     17879     17882     17885     17883     17882     17884     17883     17882     17885
     17884     17882     17885     17882     17885     17886     17882     17885     17887
     17882     17885     17890     17886     17885     17887     17886     17885     17890
     17887     17885     17890     17885     17887     17888     17885     17887     17889
     17885     17887     17890     17888     17887     17889     17888     17887     17890
     17889     17887     17890     17885     17890     17887     17885     17890     17891
     17885     17890     17892     17887     17890     17891     17887     17890     17892
     17891     17890     17892     17890     17892     17893     17890     17892     17894
     17890     17892     17895     17893     17892     17894     17893     17892     17895
     17894     17892     17895     17892     17895     17896     17892     17895     17897
     17892     17895     17898     17896     17895     17897     17896     17895     17898
     17897     17895     17898     17895     17898     17899     17895     17898     17900
     17895     17898     17901     17899     17898     17900     17899     17898     17901
     17900     17898     17901     17898     17901     17902     17898     17901     17903
     17898     17901     17904     17902     17901     17903     17902     17901     17904
     17903     17901     17904     17901     17904     17905     17901     17904     17906
     17901     17904     17907     17905     17904     17906     17905     17904     17907
     17906     17904     17907     17904     17907     17908     17904     17907     17909
     17904     17907     17910     17908     17907     17909     17908     17907     17910
     17909     17907     17910     17864     17911     17912     17864     17911     17913
     17864     17911     17914     17912     17911     17913     17912     17911     17914
     17913     17911     17914     17911     17914     17915     17911     17914     17916
     17911     17914     17917     17915     17914     17916     17915     17914     17917
     17916     17914     17917     17914     17917     17918     17914     17917     17919
     17914     17917     17920     17918     17917     17919     17918     17917     17920
     17919     17917     17920     17917     17920     17921     17917     17920     17922
     17917     17920     17923     17921     17920     17922     17921     17920     17923
     17922     17920     17923     17920     17923     17924     17920     17923     17925
     17920     17923     17926     17924     17923     17925     17924     17923     17926
     17925     17923     17926     17923     17926     17927     17923     17926     17928
     17923     17926     17929     17927     17926     17928     17927     17926     17929
     17928     17926     17929     17926     17929     17930     17926     17929     17931
     17926     17929     17932     17930     17929     17931     17930     17929     17932
     17931     17929     17932     17929     17932     17933     17929     17932     17934
     17929     17932     17935     17933     17932     17934     17933     17932     17935
     17934     17932     17935     17932     17935     17936     17932     17935     17937
     17932     17935     17938     17936     17935     17937     17936     17935     17938
     17937     17935     17938     17935     17938     17939     17935     17938     17940
     17935     17938     17941     17939     17938     17940     17939     17938     17941
     17940     17938     17941     17938     17941     17942     17938     17941     17943
     17938     17941     17944     17942     17941     17943     17942     17941     17944
     17943     17941     17944     17941     17944     17945     17941     17944     17946
     17941     17944     17947     17945     17944     17946     17945     17944     17947
     17946     17944     17947     17944     17947     17948     17944     17947     17949
     17944     17947     17950     17948     17947     17949     17948     17947     17950
     17949     17947     17950     17952     17951     17953     17952     17951     17954
     17952     17951     17955     17953     17951     17954     17953     17951     17955
     17954     17951     17955     17951     17955     17956     17951     17955     17957
     17951     17955     17958     17956     17955     17957     17956     17955     17958
     17957     17955     17958     17955     17958     17959     17955     17958     17960
     17955     17958     17965     17959     17958     17960     17959     17958     17965
     17960     17958     17965     17962     17961     17963     17962     17961     17964
     17962     17961     17965     17963     17961     17964     17963     17961     17965
     17964     17961     17965     17961     17964     17966     17958     17965     17961
     17964     17966     17967     17964     17966     17968     17964     17966     17969
     17967     17966     17968     17967     17966     17969     17968     17966     17969
     17966     17969     17970     17966     17969     17971     17966     17969     17977
     17970     17969     17971     17970     17969     17977     17971     17969     17977
     17969     17971     17972     17971     17972     17973     17971     17972     17974
     17973     17972     17974     17972     17974     17975     17972     17974     17976
     17972     17974     17986     17975     17974     17976     17975     17974     17986
     17976     17974     17986     17969     17977     17978     17969     17977     17979
     17969     17977     17980     17978     17977     17979     17978     17977     17980
     17979     17977     17980     17977     17980     17981     17980     17981     17982
     17980     17981     17983     17982     17981     17983     17981     17983     17984
     17981     17983     17985     17981     17983     18030     17984     17983     17985
     17984     17983     18030     17985     17983     18030     17974     17986     17987
     17974     17986     17988     17974     17986     17989     17987     17986     17988
     17987     17986     17989     17988     17986     17989     17986     17989     17990
     17986     17989     17991     17986     17989     17992     17990     17989     17991
     17990     17989     17992     17991     17989     17992     17989     17992     17993
     17989     17992     17994     17989     17992     17995     17993     17992     17994
     17993     17992     17995     17994     17992     17995     17992     17995     17996
     17992     17995     17997     17992     17995     17998     17996     17995     17997
     17996     17995     17998     17997     17995     17998     17995     17998     17999
     17995     17998     18000     17995     17998     18001     17999     17998     18000
     17999     17998     18001     18000     17998     18001     17998     18001     18002
     17998     18001     18003     17998     18001     18004     18002     18001     18003
     18002     18001     18004     18003     18001     18004     18001     18004     18005
     18001     18004     18006     18001     18004     18009     18005     18004     18006
     18005     18004     18009     18006     18004     18009     18004     18006     18007
     18004     18006     18008     18004     18006     18009     18007     18006     18008
     18007     18006     18009     18008     18006     18009     18004     18009     18006
     18004     18009     18010     18004     18009     18011     18006     18009     18010
     18006     18009     18011     18010     18009     18011     18009     18011     18012
     18009     18011     18013     18009     18011     18014     18012     18011     18013
     18012     18011     18014     18013     18011     18014     18011     18014     18015
     18011     18014     18016     18011     18014     18017     18015     18014     18016
     18015     18014     18017     18016     18014     18017     18014     18017     18018
     18014     18017     18019     18014     18017     18020     18018     18017     18019
     18018     18017     18020     18019     18017     18020     18017     18020     18021
     18017     18020     18022     18017     18020     18023     18021     18020     18022
     18021     18020     18023     18022     18020     18023     18020     18023     18024
     18020     18023     18025     18020     18023     18026     18024     18023     18025
     18024     18023     18026     18025     18023     18026     18023     18026     18027
     18023     18026     18028     18023     18026     18029     18027     18026     18028
     18027     18026     18029     18028     18026     18029     17983     18030     18031
     17983     18030     18032     17983     18030     18033     18031     18030     18032
     18031     18030     18033     18032     18030     18033     18030     18033     18034
     18030     18033     18035     18030     18033     18036     18034     18033     18035
     18034     18033     18036     18035     18033     18036     18033     18036     18037
     18033     18036     18038     18033     18036     18039     18037     18036     18038
     18037     18036     18039     18038     18036     18039     18036     18039     18040
     18036     18039     18041     18036     18039     18042     18040     18039     18041
     18040     18039     18042     18041     18039     18042     18039     18042     18043
     18039     18042     18044     18039     18042     18045     18043     18042     18044
     18043     18042     18045     18044     18042     18045     18042     18045     18046
     18042     18045     18047     18042     18045     18048     18046     18045     18047
     18046     18045     18048     18047     18045     18048     18045     18048     18049
     18045     18048     18050     18045     18048     18051     18049     18048     18050
     18049     18048     18051     18050     18048     18051     18048     18051     18052
     18048     18051     18053     18048     18051     18054     18052     18051     18053
     18052     18051     18054     18053     18051     18054     18051     18054     18055
     18051     18054     18056     18051     18054     18057     18055     18054     18056
     18055     18054     18057     18056     18054     18057     18054     18057     18058
     18054     18057     18059     18054     18057     18060     18058     18057     18059
     18058     18057     18060     18059     18057     18060     18057     18060     18061
     18057     18060     18062     18057     18060     18063     18061     18060     18062
     18061     18060     18063     18062     18060     18063     18060     18063     18064
     18060     18063     18065     18060     18063     18066     18064     18063     18065
     18064     18063     18066     18065     18063     18066     18063     18066     18067
     18063     18066     18068     18063     18066     18069     18067     18066     18068
     18067     18066     18069     18068     18066     18069     18071     18070     18072
     18071     18070     18073     18071     18070     18074     18072     18070     18073
     18072     18070     18074     18073     18070     18074     18070     18074     18075
     18070     18074     18076     18070     18074     18077     18075     18074     18076
     18075     18074     18077     18076     18074     18077     18074     18077     18078
     18074     18077     18079     18074     18077     18084     18078     18077     18079
     18078     18077     18084     18079     18077     18084     18081     18080     18082
     18081     18080     18083     18081     18080     18084     18082     18080     18083
     18082     18080     18084     18083     18080     18084     18080     18083     18085
     18077     18084     18080     18083     18085     18086     18083     18085     18087
     18083     18085     18088     18086     18085     18087     18086     18085     18088
     18087     18085     18088     18085     18088     18089     18085     18088     18090
     18085     18088     18096     18089     18088     18090     18089     18088     18096
     18090     18088     18096     18088     18090     18091     18090     18091     18092
     18090     18091     18093     18092     18091     18093     18091     18093     18094
     18091     18093     18095     18091     18093     18105     18094     18093     18095
     18094     18093     18105     18095     18093     18105     18088     18096     18097
     18088     18096     18098     18088     18096     18099     18097     18096     18098
     18097     18096     18099     18098     18096     18099     18096     18099     18100
     18099     18100     18101     18099     18100     18102     18101     18100     18102
     18100     18102     18103     18100     18102     18104     18100     18102     18149
     18103     18102     18104     18103     18102     18149     18104     18102     18149
     18093     18105     18106     18093     18105     18107     18093     18105     18108
     18106     18105     18107     18106     18105     18108     18107     18105     18108
     18105     18108     18109     18105     18108     18110     18105     18108     18111
     18109     18108     18110     18109     18108     18111     18110     18108     18111
     18108     18111     18112     18108     18111     18113     18108     18111     18114
     18112     18111     18113     18112     18111     18114     18113     18111     18114
     18111     18114     18115     18111     18114     18116     18111     18114     18117
     18115     18114     18116     18115     18114     18117     18116     18114     18117
     18114     18117     18118     18114     18117     18119     18114     18117     18120
     18118     18117     18119     18118     18117     18120     18119     18117     18120
     18117     18120     18121     18117     18120     18122     18117     18120     18123
     18121     18120     18122     18121     18120     18123     18122     18120     18123
     18120     18123     18124     18120     18123     18125     18120     18123     18128
     18124     18123     18125     18124     18123     18128     18125     18123     18128
     18123     18125     18126     18123     18125     18127     18123     18125     18128
     18126     18125     18127     18126     18125     18128     18127     18125     18128
     18123     18128     18125     18123     18128     18129     18123     18128     18130
     18125     18128     18129     18125     18128     18130     18129     18128     18130
     18128     18130     18131     18128     18130     18132     18128     18130     18133
     18131     18130     18132     18131     18130     18133     18132     18130     18133
     18130     18133     18134     18130     18133     18135     18130     18133     18136
     18134     18133     18135     18134     18133     18136     18135     18133     18136
     18133     18136     18137     18133     18136     18138     18133     18136     18139
     18137     18136     18138     18137     18136     18139     18138     18136     18139
     18136     18139     18140     18136     18139     18141     18136     18139     18142
     18140     18139     18141     18140     18139     18142     18141     18139     18142
     18139     18142     18143     18139     18142     18144     18139     18142     18145
     18143     18142     18144     18143     18142     18145     18144     18142     18145
     18142     18145     18146     18142     18145     18147     18142     18145     18148
     18146     18145     18147     18146     18145     18148     18147     18145     18148
     18102     18149     18150     18102     18149     18151     18102     18149     18152
     18150     18149     18151     18150     18149     18152     18151     18149     18152
     18149     18152     18153     18149     18152     18154     18149     18152     18155
     18153     18152     18154     18153     18152     18155     18154     18152     18155
     18152     18155     18156     18152     18155     18157     18152     18155     18158
     18156     18155     18157     18156     18155     18158     18157     18155     18158
     18155     18158     18159     18155     18158     18160     18155     18158     18161
     18159     18158     18160     18159     18158     18161     18160     18158     18161
     18158     18161     18162     18158     18161     18163     18158     18161     18164
     18162     18161     18163     18162     18161     18164     18163     18161     18164
     18161     18164     18165     18161     18164     18166     18161     18164     18167
     18165     18164     18166     18165     18164     18167     18166     18164     18167
     18164     18167     18168     18164     18167     18169     18164     18167     18170
     18168     18167     18169     18168     18167     18170     18169     18167     18170
     18167     18170     18171     18167     18170     18172     18167     18170     18173
     18171     18170     18172     18171     18170     18173     18172     18170     18173
     18170     18173     18174     18170     18173     18175     18170     18173     18176
     18174     18173     18175     18174     18173     18176     18175     18173     18176
     18173     18176     18177     18173     18176     18178     18173     18176     18179
     18177     18176     18178     18177     18176     18179     18178     18176     18179
     18176     18179     18180     18176     18179     18181     18176     18179     18182
     18180     18179     18181     18180     18179     18182     18181     18179     18182
     18179     18182     18183     18179     18182     18184     18179     18182     18185
     18183     18182     18184     18183     18182     18185     18184     18182     18185
     18182     18185     18186     18182     18185     18187     18182     18185     18188
     18186     18185     18187     18186     18185     18188     18187     18185     18188
     18185     18188     18189     18185     18188     18190     18185     18188     18191
     18189     18188     18190     18189     18188     18191     18190     18188     18191
     18193     18192     18194     18193     18192     18195     18193     18192     18196
     18194     18192     18195     18194     18192     18196     18195     18192     18196
     18192     18196     18197     18192     18196     18198     18192     18196     18199
     18197     18196     18198     18197     18196     18199     18198     18196     18199
     18196     18199     18200     18196     18199     18201     18196     18199     18206
     18200     18199     18201     18200     18199     18206     18201     18199     18206
     18203     18202     18204     18203     18202     18205     18203     18202     18206
     18204     18202     18205     18204     18202     18206     18205     18202     18206
     18202     18205     18207     18199     18206     18202     18205     18207     18208
     18205     18207     18209     18205     18207     18210     18208     18207     18209
     18208     18207     18210     18209     18207     18210     18207     18210     18211
     18207     18210     18212     18207     18210     18218     18211     18210     18212
     18211     18210     18218     18212     18210     18218     18210     18212     18213
     18212     18213     18214     18212     18213     18215     18214     18213     18215
     18213     18215     18216     18213     18215     18217     18213     18215     18227
     18216     18215     18217     18216     18215     18227     18217     18215     18227
     18210     18218     18219     18210     18218     18220     18210     18218     18221
     18219     18218     18220     18219     18218     18221     18220     18218     18221
     18218     18221     18222     18221     18222     18223     18221     18222     18224
     18223     18222     18224     18222     18224     18225     18222     18224     18226
     18222     18224     18271     18225     18224     18226     18225     18224     18271
     18226     18224     18271     18215     18227     18228     18215     18227     18229
     18215     18227     18230     18228     18227     18229     18228     18227     18230
     18229     18227     18230     18227     18230     18231     18227     18230     18232
     18227     18230     18233     18231     18230     18232     18231     18230     18233
     18232     18230     18233     18230     18233     18234     18230     18233     18235
     18230     18233     18236     18234     18233     18235     18234     18233     18236
     18235     18233     18236     18233     18236     18237     18233     18236     18238
     18233     18236     18239     18237     18236     18238     18237     18236     18239
     18238     18236     18239     18236     18239     18240     18236     18239     18241
     18236     18239     18242     18240     18239     18241     18240     18239     18242
     18241     18239     18242     18239     18242     18243     18239     18242     18244
     18239     18242     18245     18243     18242     18244     18243     18242     18245
     18244     18242     18245     18242     18245     18246     18242     18245     18247
     18242     18245     18250     18246     18245     18247     18246     18245     18250
     18247     18245     18250     18245     18247     18248     18245     18247     18249
     18245     18247     18250     18248     18247     18249     18248     18247     18250
     18249     18247     18250     18245     18250     18247     18245     18250     18251
     18245     18250     18252     18247     18250     18251     18247     18250     18252
     18251     18250     18252     18250     18252     18253     18250     18252     18254
     18250     18252     18255     18253     18252     18254     18253     18252     18255
     18254     18252     18255     18252     18255     18256     18252     18255     18257
     18252     18255     18258     18256     18255     18257     18256     18255     18258
     18257     18255     18258     18255     18258     18259     18255     18258     18260
     18255     18258     18261     18259     18258     18260     18259     18258     18261
     18260     18258     18261     18258     18261     18262     18258     18261     18263
     18258     18261     18264     18262     18261     18263     18262     18261     18264
     18263     18261     18264     18261     18264     18265     18261     18264     18266
     18261     18264     18267     18265     18264     18266     18265     18264     18267
     18266     18264     18267     18264     18267     18268     18264     18267     18269
     18264     18267     18270     18268     18267     18269     18268     18267     18270
     18269     18267     18270     18224     18271     18272     18224     18271     18273
     18224     18271     18274     18272     18271     18273     18272     18271     18274
     18273     18271     18274     18271     18274     18275     18271     18274     18276
     18271     18274     18277     18275     18274     18276     18275     18274     18277
     18276     18274     18277     18274     18277     18278     18274     18277     18279
     18274     18277     18280     18278     18277     18279     18278     18277     18280
     18279     18277     18280     18277     18280     18281     18277     18280     18282
     18277     18280     18283     18281     18280     18282     18281     18280     18283
     18282     18280     18283     18280     18283     18284     18280     18283     18285
     18280     18283     18286     18284     18283     18285     18284     18283     18286
     18285     18283     18286     18283     18286     18287     18283     18286     18288
     18283     18286     18289     18287     18286     18288     18287     18286     18289
     18288     18286     18289     18286     18289     18290     18286     18289     18291
     18286     18289     18292     18290     18289     18291     18290     18289     18292
     18291     18289     18292     18289     18292     18293     18289     18292     18294
     18289     18292     18295     18293     18292     18294     18293     18292     18295
     18294     18292     18295     18292     18295     18296     18292     18295     18297
     18292     18295     18298     18296     18295     18297     18296     18295     18298
     18297     18295     18298     18295     18298     18299     18295     18298     18300
     18295     18298     18301     18299     18298     18300     18299     18298     18301
     18300     18298     18301     18298     18301     18302     18298     18301     18303
     18298     18301     18304     18302     18301     18303     18302     18301     18304
     18303     18301     18304     18301     18304     18305     18301     18304     18306
     18301     18304     18307     18305     18304     18306     18305     18304     18307
     18306     18304     18307     18304     18307     18308     18304     18307     18309
     18304     18307     18310     18308     18307     18309     18308     18307     18310
     18309     18307     18310     18307     18310     18311     18307     18310     18312
     18307     18310     18313     18311     18310     18312     18311     18310     18313
     18312     18310     18313     18315     18314     18316     18315     18314     18317
     18315     18314     18318     18316     18314     18317     18316     18314     18318
     18317     18314     18318     18314     18318     18319     18314     18318     18320
     18314     18318     18321     18319     18318     18320     18319     18318     18321
     18320     18318     18321     18318     18321     18322     18318     18321     18323
     18318     18321     18328     18322     18321     18323     18322     18321     18328
     18323     18321     18328     18325     18324     18326     18325     18324     18327
     18325     18324     18328     18326     18324     18327     18326     18324     18328
     18327     18324     18328     18324     18327     18329     18321     18328     18324
     18327     18329     18330     18327     18329     18331     18327     18329     18332
     18330     18329     18331     18330     18329     18332     18331     18329     18332
     18329     18332     18333     18329     18332     18334     18329     18332     18340
     18333     18332     18334     18333     18332     18340     18334     18332     18340
     18332     18334     18335     18334     18335     18336     18334     18335     18337
     18336     18335     18337     18335     18337     18338     18335     18337     18339
     18335     18337     18349     18338     18337     18339     18338     18337     18349
     18339     18337     18349     18332     18340     18341     18332     18340     18342
     18332     18340     18343     18341     18340     18342     18341     18340     18343
     18342     18340     18343     18340     18343     18344     18343     18344     18345
     18343     18344     18346     18345     18344     18346     18344     18346     18347
     18344     18346     18348     18344     18346     18393     18347     18346     18348
     18347     18346     18393     18348     18346     18393     18337     18349     18350
     18337     18349     18351     18337     18349     18352     18350     18349     18351
     18350     18349     18352     18351     18349     18352     18349     18352     18353
     18349     18352     18354     18349     18352     18355     18353     18352     18354
     18353     18352     18355     18354     18352     18355     18352     18355     18356
     18352     18355     18357     18352     18355     18358     18356     18355     18357
     18356     18355     18358     18357     18355     18358     18355     18358     18359
     18355     18358     18360     18355     18358     18361     18359     18358     18360
     18359     18358     18361     18360     18358     18361     18358     18361     18362
     18358     18361     18363     18358     18361     18364     18362     18361     18363
     18362     18361     18364     18363     18361     18364     18361     18364     18365
     18361     18364     18366     18361     18364     18367     18365     18364     18366
     18365     18364     18367     18366     18364     18367     18364     18367     18368
     18364     18367     18369     18364     18367     18372     18368     18367     18369
     18368     18367     18372     18369     18367     18372     18367     18369     18370
     18367     18369     18371     18367     18369     18372     18370     18369     18371
     18370     18369     18372     18371     18369     18372     18367     18372     18369
     18367     18372     18373     18367     18372     18374     18369     18372     18373
     18369     18372     18374     18373     18372     18374     18372     18374     18375
     18372     18374     18376     18372     18374     18377     18375     18374     18376
     18375     18374     18377     18376     18374     18377     18374     18377     18378
     18374     18377     18379     18374     18377     18380     18378     18377     18379
     18378     18377     18380     18379     18377     18380     18377     18380     18381
     18377     18380     18382     18377     18380     18383     18381     18380     18382
     18381     18380     18383     18382     18380     18383     18380     18383     18384
     18380     18383     18385     18380     18383     18386     18384     18383     18385
     18384     18383     18386     18385     18383     18386     18383     18386     18387
     18383     18386     18388     18383     18386     18389     18387     18386     18388
     18387     18386     18389     18388     18386     18389     18386     18389     18390
     18386     18389     18391     18386     18389     18392     18390     18389     18391
     18390     18389     18392     18391     18389     18392     18346     18393     18394
     18346     18393     18395     18346     18393     18396     18394     18393     18395
     18394     18393     18396     18395     18393     18396     18393     18396     18397
     18393     18396     18398     18393     18396     18399     18397     18396     18398
     18397     18396     18399     18398     18396     18399     18396     18399     18400
     18396     18399     18401     18396     18399     18402     18400     18399     18401
     18400     18399     18402     18401     18399     18402     18399     18402     18403
     18399     18402     18404     18399     18402     18405     18403     18402     18404
     18403     18402     18405     18404     18402     18405     18402     18405     18406
     18402     18405     18407     18402     18405     18408     18406     18405     18407
     18406     18405     18408     18407     18405     18408     18405     18408     18409
     18405     18408     18410     18405     18408     18411     18409     18408     18410
     18409     18408     18411     18410     18408     18411     18408     18411     18412
     18408     18411     18413     18408     18411     18414     18412     18411     18413
     18412     18411     18414     18413     18411     18414     18411     18414     18415
     18411     18414     18416     18411     18414     18417     18415     18414     18416
     18415     18414     18417     18416     18414     18417     18414     18417     18418
     18414     18417     18419     18414     18417     18420     18418     18417     18419
     18418     18417     18420     18419     18417     18420     18417     18420     18421
     18417     18420     18422     18417     18420     18423     18421     18420     18422
     18421     18420     18423     18422     18420     18423     18420     18423     18424
     18420     18423     18425     18420     18423     18426     18424     18423     18425
     18424     18423     18426     18425     18423     18426     18423     18426     18427
     18423     18426     18428     18423     18426     18429     18427     18426     18428
     18427     18426     18429     18428     18426     18429     18426     18429     18430
     18426     18429     18431     18426     18429     18432     18430     18429     18431
     18430     18429     18432     18431     18429     18432     18429     18432     18433
     18429     18432     18434     18429     18432     18435     18433     18432     18434
     18433     18432     18435     18434     18432     18435     18437     18436     18438
     18437     18436     18439     18437     18436     18441     18438     18436     18439
     18438     18436     18441     18439     18436     18441     18436     18439     18440
     18436     18441     18442     18436     18441     18443     18436     18441     18445
     18442     18441     18443     18442     18441     18445     18443     18441     18445
     18441     18443     18444     18441     18445     18446     18441     18445     18447
     18441     18445     18452     18446     18445     18447     18446     18445     18452
     18447     18445     18452     18449     18448     18450     18449     18448     18451
     18449     18448     18452     18450     18448     18451     18450     18448     18452
     18451     18448     18452     18448     18451     18453     18445     18452     18448
     18451     18453     18454     18451     18453     18455     18451     18453     18456
     18454     18453     18455     18454     18453     18456     18455     18453     18456
     18453     18456     18457     18453     18456     18458     18453     18456     18464
     18457     18456     18458     18457     18456     18464     18458     18456     18464
     18456     18458     18459     18458     18459     18460     18458     18459     18461
     18460     18459     18461     18459     18461     18462     18459     18461     18463
     18459     18461     18473     18462     18461     18463     18462     18461     18473
     18463     18461     18473     18456     18464     18465     18456     18464     18466
     18456     18464     18467     18465     18464     18466     18465     18464     18467
     18466     18464     18467     18464     18467     18468     18467     18468     18469
     18467     18468     18470     18469     18468     18470     18468     18470     18471
     18468     18470     18472     18468     18470     18514     18471     18470     18472
     18471     18470     18514     18472     18470     18514     18461     18473     18474
     18461     18473     18475     18461     18473     18476     18474     18473     18475
     18474     18473     18476     18475     18473     18476     18473     18476     18477
     18473     18476     18478     18473     18476     18479     18477     18476     18478
     18477     18476     18479     18478     18476     18479     18476     18479     18480
     18476     18479     18481     18476     18479     18482     18480     18479     18481
     18480     18479     18482     18481     18479     18482     18479     18482     18483
     18479     18482     18484     18479     18482     18485     18483     18482     18484
     18483     18482     18485     18484     18482     18485     18482     18485     18486
     18482     18485     18487     18482     18485     18488     18486     18485     18487
     18486     18485     18488     18487     18485     18488     18485     18488     18489
     18485     18488     18490     18485     18488     18491     18489     18488     18490
     18489     18488     18491     18490     18488     18491     18488     18491     18492
     18488     18491     18493     18492     18491     18493     18491     18493     18494
     18491     18493     18495     18494     18493     18495     18493     18495     18496
     18493     18495     18497     18493     18495     18498     18496     18495     18497
     18496     18495     18498     18497     18495     18498     18495     18498     18499
     18495     18498     18500     18495     18498     18501     18499     18498     18500
     18499     18498     18501     18500     18498     18501     18498     18501     18502
     18498     18501     18503     18498     18501     18504     18502     18501     18503
     18502     18501     18504     18503     18501     18504     18501     18504     18505
     18501     18504     18506     18501     18504     18507     18505     18504     18506
     18505     18504     18507     18506     18504     18507     18504     18507     18508
     18504     18507     18509     18504     18507     18510     18508     18507     18509
     18508     18507     18510     18509     18507     18510     18507     18510     18511
     18507     18510     18512     18507     18510     18513     18511     18510     18512
     18511     18510     18513     18512     18510     18513     18470     18514     18515
     18470     18514     18516     18470     18514     18517     18515     18514     18516
     18515     18514     18517     18516     18514     18517     18514     18517     18518
     18514     18517     18519     18514     18517     18520     18518     18517     18519
     18518     18517     18520     18519     18517     18520     18517     18520     18521
     18517     18520     18522     18517     18520     18523     18521     18520     18522
     18521     18520     18523     18522     18520     18523     18520     18523     18524
     18520     18523     18525     18520     18523     18526     18524     18523     18525
     18524     18523     18526     18525     18523     18526     18523     18526     18527
     18523     18526     18528     18523     18526     18529     18527     18526     18528
     18527     18526     18529     18528     18526     18529     18526     18529     18530
     18526     18529     18531     18526     18529     18532     18530     18529     18531
     18530     18529     18532     18531     18529     18532     18529     18532     18533
     18529     18532     18534     18529     18532     18535     18533     18532     18534
     18533     18532     18535     18534     18532     18535     18532     18535     18536
     18532     18535     18537     18532     18535     18538     18536     18535     18537
     18536     18535     18538     18537     18535     18538     18535     18538     18539
     18535     18538     18540     18535     18538     18541     18539     18538     18540
     18539     18538     18541     18540     18538     18541     18538     18541     18542
     18538     18541     18543     18538     18541     18544     18542     18541     18543
     18542     18541     18544     18543     18541     18544     18541     18544     18545
     18541     18544     18546     18541     18544     18547     18545     18544     18546
     18545     18544     18547     18546     18544     18547     18544     18547     18548
     18544     18547     18549     18544     18547     18550     18548     18547     18549
     18548     18547     18550     18549     18547     18550     18547     18550     18551
     18547     18550     18552     18547     18550     18553     18551     18550     18552
     18551     18550     18553     18552     18550     18553     18550     18553     18554
     18550     18553     18555     18550     18553     18556     18554     18553     18555
     18554     18553     18556     18555     18553     18556     18558     18557     18559
     18558     18557     18560     18558     18557     18561     18559     18557     18560
     18559     18557     18561     18560     18557     18561     18557     18561     18562
     18557     18561     18563     18557     18561     18564     18562     18561     18563
     18562     18561     18564     18563     18561     18564     18561     18564     18565
     18561     18564     18566     18561     18564     18571     18565     18564     18566
     18565     18564     18571     18566     18564     18571     18568     18567     18569
     18568     18567     18570     18568     18567     18571     18569     18567     18570
     18569     18567     18571     18570     18567     18571     18567     18570     18572
     18564     18571     18567     18570     18572     18573     18570     18572     18574
     18570     18572     18575     18573     18572     18574     18573     18572     18575
     18574     18572     18575     18572     18575     18576     18572     18575     18577
     18572     18575     18583     18576     18575     18577     18576     18575     18583
     18577     18575     18583     18575     18577     18578     18577     18578     18579
     18577     18578     18580     18579     18578     18580     18578     18580     18581
     18578     18580     18582     18578     18580     18592     18581     18580     18582
     18581     18580     18592     18582     18580     18592     18575     18583     18584
     18575     18583     18585     18575     18583     18586     18584     18583     18585
     18584     18583     18586     18585     18583     18586     18583     18586     18587
     18586     18587     18588     18586     18587     18589     18588     18587     18589
     18587     18589     18590     18587     18589     18591     18587     18589     18639
     18590     18589     18591     18590     18589     18639     18591     18589     18639
     18580     18592     18593     18580     18592     18594     18580     18592     18595
     18593     18592     18594     18593     18592     18595     18594     18592     18595
     18592     18595     18596     18592     18595     18597     18592     18595     18598
     18596     18595     18597     18596     18595     18598     18597     18595     18598
     18595     18598     18599     18595     18598     18600     18595     18598     18601
     18599     18598     18600     18599     18598     18601     18600     18598     18601
     18598     18601     18602     18598     18601     18603     18598     18601     18604
     18602     18601     18603     18602     18601     18604     18603     18601     18604
     18601     18604     18605     18601     18604     18606     18601     18604     18607
     18605     18604     18606     18605     18604     18607     18606     18604     18607
     18604     18607     18608     18604     18607     18609     18604     18607     18610
     18608     18607     18609     18608     18607     18610     18609     18607     18610
     18607     18610     18611     18607     18610     18612     18611     18610     18612
     18610     18612     18613     18610     18612     18614     18613     18612     18614
     18612     18614     18615     18612     18614     18616     18612     18614     18617
     18615     18614     18616     18615     18614     18617     18616     18614     18617
     18614     18617     18618     18614     18617     18619     18614     18617     18620
     18618     18617     18619     18618     18617     18620     18619     18617     18620
     18617     18620     18621     18617     18620     18622     18617     18620     18623
     18621     18620     18622     18621     18620     18623     18622     18620     18623
     18620     18623     18624     18620     18623     18625     18620     18623     18626
     18624     18623     18625     18624     18623     18626     18625     18623     18626
     18623     18626     18627     18623     18626     18628     18623     18626     18629
     18627     18626     18628     18627     18626     18629     18628     18626     18629
     18626     18629     18630     18626     18629     18631     18626     18629     18632
     18630     18629     18631     18630     18629     18632     18631     18629     18632
     18629     18632     18633     18629     18632     18634     18629     18632     18635
     18633     18632     18634     18633     18632     18635     18634     18632     18635
     18632     18635     18636     18632     18635     18637     18632     18635     18638
     18636     18635     18637     18636     18635     18638     18637     18635     18638
     18589     18639     18640     18589     18639     18641     18589     18639     18642
     18640     18639     18641     18640     18639     18642     18641     18639     18642
     18639     18642     18643     18639     18642     18644     18639     18642     18645
     18643     18642     18644     18643     18642     18645     18644     18642     18645
     18642     18645     18646     18642     18645     18647     18642     18645     18648
     18646     18645     18647     18646     18645     18648     18647     18645     18648
     18645     18648     18649     18645     18648     18650     18645     18648     18651
     18649     18648     18650     18649     18648     18651     18650     18648     18651
     18648     18651     18652     18648     18651     18653     18648     18651     18654
     18652     18651     18653     18652     18651     18654     18653     18651     18654
     18651     18654     18655     18651     18654     18656     18651     18654     18657
     18655     18654     18656     18655     18654     18657     18656     18654     18657
     18654     18657     18658     18654     18657     18659     18654     18657     18660
     18658     18657     18659     18658     18657     18660     18659     18657     18660
     18657     18660     18661     18657     18660     18662     18657     18660     18663
     18661     18660     18662     18661     18660     18663     18662     18660     18663
     18660     18663     18664     18660     18663     18665     18660     18663     18666
     18664     18663     18665     18664     18663     18666     18665     18663     18666
     18663     18666     18667     18663     18666     18668     18663     18666     18669
     18667     18666     18668     18667     18666     18669     18668     18666     18669
     18666     18669     18670     18666     18669     18671     18666     18669     18672
     18670     18669     18671     18670     18669     18672     18671     18669     18672
     18669     18672     18673     18669     18672     18674     18669     18672     18675
     18673     18672     18674     18673     18672     18675     18674     18672     18675
     18672     18675     18676     18672     18675     18677     18672     18675     18678
     18676     18675     18677     18676     18675     18678     18677     18675     18678
     18675     18678     18679     18675     18678     18680     18675     18678     18681
     18679     18678     18680     18679     18678     18681     18680     18678     18681
     18683     18682     18684     18683     18682     18685     18683     18682     18686
     18684     18682     18685     18684     18682     18686     18685     18682     18686
     18682     18686     18687     18682     18686     18688     18682     18686     18689
     18687     18686     18688     18687     18686     18689     18688     18686     18689
     18686     18689     18690     18686     18689     18691     18686     18689     18696
     18690     18689     18691     18690     18689     18696     18691     18689     18696
     18693     18692     18694     18693     18692     18695     18693     18692     18696
     18694     18692     18695     18694     18692     18696     18695     18692     18696
     18692     18695     18697     18689     18696     18692     18695     18697     18698
     18695     18697     18699     18695     18697     18700     18698     18697     18699
     18698     18697     18700     18699     18697     18700     18697     18700     18701
     18697     18700     18702     18697     18700     18708     18701     18700     18702
     18701     18700     18708     18702     18700     18708     18700     18702     18703
     18702     18703     18704     18702     18703     18705     18704     18703     18705
     18703     18705     18706     18703     18705     18707     18703     18705     18717
     18706     18705     18707     18706     18705     18717     18707     18705     18717
     18700     18708     18709     18700     18708     18710     18700     18708     18711
     18709     18708     18710     18709     18708     18711     18710     18708     18711
     18708     18711     18712     18711     18712     18713     18711     18712     18714
     18713     18712     18714     18712     18714     18715     18712     18714     18716
     18712     18714     18761     18715     18714     18716     18715     18714     18761
     18716     18714     18761     18705     18717     18718     18705     18717     18719
     18705     18717     18720     18718     18717     18719     18718     18717     18720
     18719     18717     18720     18717     18720     18721     18717     18720     18722
     18717     18720     18723     18721     18720     18722     18721     18720     18723
     18722     18720     18723     18720     18723     18724     18720     18723     18725
     18720     18723     18726     18724     18723     18725     18724     18723     18726
     18725     18723     18726     18723     18726     18727     18723     18726     18728
     18723     18726     18729     18727     18726     18728     18727     18726     18729
     18728     18726     18729     18726     18729     18730     18726     18729     18731
     18726     18729     18732     18730     18729     18731     18730     18729     18732
     18731     18729     18732     18729     18732     18733     18729     18732     18734
     18729     18732     18735     18733     18732     18734     18733     18732     18735
     18734     18732     18735     18732     18735     18736     18732     18735     18737
     18732     18735     18740     18736     18735     18737     18736     18735     18740
     18737     18735     18740     18735     18737     18738     18735     18737     18739
     18735     18737     18740     18738     18737     18739     18738     18737     18740
     18739     18737     18740     18735     18740     18737     18735     18740     18741
     18735     18740     18742     18737     18740     18741     18737     18740     18742
     18741     18740     18742     18740     18742     18743     18740     18742     18744
     18740     18742     18745     18743     18742     18744     18743     18742     18745
     18744     18742     18745     18742     18745     18746     18742     18745     18747
     18742     18745     18748     18746     18745     18747     18746     18745     18748
     18747     18745     18748     18745     18748     18749     18745     18748     18750
     18745     18748     18751     18749     18748     18750     18749     18748     18751
     18750     18748     18751     18748     18751     18752     18748     18751     18753
     18748     18751     18754     18752     18751     18753     18752     18751     18754
     18753     18751     18754     18751     18754     18755     18751     18754     18756
     18751     18754     18757     18755     18754     18756     18755     18754     18757
     18756     18754     18757     18754     18757     18758     18754     18757     18759
     18754     18757     18760     18758     18757     18759     18758     18757     18760
     18759     18757     18760     18714     18761     18762     18714     18761     18763
     18714     18761     18764     18762     18761     18763     18762     18761     18764
     18763     18761     18764     18761     18764     18765     18761     18764     18766
     18761     18764     18767     18765     18764     18766     18765     18764     18767
     18766     18764     18767     18764     18767     18768     18764     18767     18769
     18764     18767     18770     18768     18767     18769     18768     18767     18770
     18769     18767     18770     18767     18770     18771     18767     18770     18772
     18767     18770     18773     18771     18770     18772     18771     18770     18773
     18772     18770     18773     18770     18773     18774     18770     18773     18775
     18770     18773     18776     18774     18773     18775     18774     18773     18776
     18775     18773     18776     18773     18776     18777     18773     18776     18778
     18773     18776     18779     18777     18776     18778     18777     18776     18779
     18778     18776     18779     18776     18779     18780     18776     18779     18781
     18776     18779     18782     18780     18779     18781     18780     18779     18782
     18781     18779     18782     18779     18782     18783     18779     18782     18784
     18779     18782     18785     18783     18782     18784     18783     18782     18785
     18784     18782     18785     18782     18785     18786     18782     18785     18787
     18782     18785     18788     18786     18785     18787     18786     18785     18788
     18787     18785     18788     18785     18788     18789     18785     18788     18790
     18785     18788     18791     18789     18788     18790     18789     18788     18791
     18790     18788     18791     18788     18791     18792     18788     18791     18793
     18788     18791     18794     18792     18791     18793     18792     18791     18794
     18793     18791     18794     18791     18794     18795     18791     18794     18796
     18791     18794     18797     18795     18794     18796     18795     18794     18797
     18796     18794     18797     18794     18797     18798     18794     18797     18799
     18794     18797     18800     18798     18797     18799     18798     18797     18800
     18799     18797     18800     18797     18800     18801     18797     18800     18802
     18797     18800     18803     18801     18800     18802     18801     18800     18803
     18802     18800     18803     18805     18804     18806     18805     18804     18807
     18805     18804     18808     18806     18804     18807     18806     18804     18808
     18807     18804     18808     18804     18808     18809     18804     18808     18810
     18804     18808     18811     18809     18808     18810     18809     18808     18811
     18810     18808     18811     18808     18811     18812     18808     18811     18813
     18808     18811     18818     18812     18811     18813     18812     18811     18818
     18813     18811     18818     18815     18814     18816     18815     18814     18817
     18815     18814     18818     18816     18814     18817     18816     18814     18818
     18817     18814     18818     18814     18817     18819     18811     18818     18814
     18817     18819     18820     18817     18819     18821     18817     18819     18822
     18820     18819     18821     18820     18819     18822     18821     18819     18822
     18819     18822     18823     18819     18822     18824     18819     18822     18830
     18823     18822     18824     18823     18822     18830     18824     18822     18830
     18822     18824     18825     18824     18825     18826     18824     18825     18827
     18826     18825     18827     18825     18827     18828     18825     18827     18829
     18825     18827     18839     18828     18827     18829     18828     18827     18839
     18829     18827     18839     18822     18830     18831     18822     18830     18832
     18822     18830     18833     18831     18830     18832     18831     18830     18833
     18832     18830     18833     18830     18833     18834     18833     18834     18835
     18833     18834     18836     18835     18834     18836     18834     18836     18837
     18834     18836     18838     18834     18836     18883     18837     18836     18838
     18837     18836     18883     18838     18836     18883     18827     18839     18840
     18827     18839     18841     18827     18839     18842     18840     18839     18841
     18840     18839     18842     18841     18839     18842     18839     18842     18843
     18839     18842     18844     18839     18842     18845     18843     18842     18844
     18843     18842     18845     18844     18842     18845     18842     18845     18846
     18842     18845     18847     18842     18845     18848     18846     18845     18847
     18846     18845     18848     18847     18845     18848     18845     18848     18849
     18845     18848     18850     18845     18848     18851     18849     18848     18850
     18849     18848     18851     18850     18848     18851     18848     18851     18852
     18848     18851     18853     18848     18851     18854     18852     18851     18853
     18852     18851     18854     18853     18851     18854     18851     18854     18855
     18851     18854     18856     18851     18854     18857     18855     18854     18856
     18855     18854     18857     18856     18854     18857     18854     18857     18858
     18854     18857     18859     18854     18857     18862     18858     18857     18859
     18858     18857     18862     18859     18857     18862     18857     18859     18860
     18857     18859     18861     18857     18859     18862     18860     18859     18861
     18860     18859     18862     18861     18859     18862     18857     18862     18859
     18857     18862     18863     18857     18862     18864     18859     18862     18863
     18859     18862     18864     18863     18862     18864     18862     18864     18865
     18862     18864     18866     18862     18864     18867     18865     18864     18866
     18865     18864     18867     18866     18864     18867     18864     18867     18868
     18864     18867     18869     18864     18867     18870     18868     18867     18869
     18868     18867     18870     18869     18867     18870     18867     18870     18871
     18867     18870     18872     18867     18870     18873     18871     18870     18872
     18871     18870     18873     18872     18870     18873     18870     18873     18874
     18870     18873     18875     18870     18873     18876     18874     18873     18875
     18874     18873     18876     18875     18873     18876     18873     18876     18877
     18873     18876     18878     18873     18876     18879     18877     18876     18878
     18877     18876     18879     18878     18876     18879     18876     18879     18880
     18876     18879     18881     18876     18879     18882     18880     18879     18881
     18880     18879     18882     18881     18879     18882     18836     18883     18884
     18836     18883     18885     18836     18883     18886     18884     18883     18885
     18884     18883     18886     18885     18883     18886     18883     18886     18887
     18883     18886     18888     18883     18886     18889     18887     18886     18888
     18887     18886     18889     18888     18886     18889     18886     18889     18890
     18886     18889     18891     18886     18889     18892     18890     18889     18891
     18890     18889     18892     18891     18889     18892     18889     18892     18893
     18889     18892     18894     18889     18892     18895     18893     18892     18894
     18893     18892     18895     18894     18892     18895     18892     18895     18896
     18892     18895     18897     18892     18895     18898     18896     18895     18897
     18896     18895     18898     18897     18895     18898     18895     18898     18899
     18895     18898     18900     18895     18898     18901     18899     18898     18900
     18899     18898     18901     18900     18898     18901     18898     18901     18902
     18898     18901     18903     18898     18901     18904     18902     18901     18903
     18902     18901     18904     18903     18901     18904     18901     18904     18905
     18901     18904     18906     18901     18904     18907     18905     18904     18906
     18905     18904     18907     18906     18904     18907     18904     18907     18908
     18904     18907     18909     18904     18907     18910     18908     18907     18909
     18908     18907     18910     18909     18907     18910     18907     18910     18911
     18907     18910     18912     18907     18910     18913     18911     18910     18912
     18911     18910     18913     18912     18910     18913     18910     18913     18914
     18910     18913     18915     18910     18913     18916     18914     18913     18915
     18914     18913     18916     18915     18913     18916     18913     18916     18917
     18913     18916     18918     18913     18916     18919     18917     18916     18918
     18917     18916     18919     18918     18916     18919     18916     18919     18920
     18916     18919     18921     18916     18919     18922     18920     18919     18921
     18920     18919     18922     18921     18919     18922     18924     18923     18925
     18924     18923     18926     18924     18923     18927     18925     18923     18926
     18925     18923     18927     18926     18923     18927     18923     18927     18928
     18923     18927     18929     18923     18927     18930     18928     18927     18929
     18928     18927     18930     18929     18927     18930     18927     18930     18931
     18927     18930     18932     18927     18930     18937     18931     18930     18932
     18931     18930     18937     18932     18930     18937     18934     18933     18935
     18934     18933     18936     18934     18933     18937     18935     18933     18936
     18935     18933     18937     18936     18933     18937     18933     18936     18938
     18930     18937     18933     18936     18938     18939     18936     18938     18940
     18936     18938     18941     18939     18938     18940     18939     18938     18941
     18940     18938     18941     18938     18941     18942     18938     18941     18943
     18938     18941     18949     18942     18941     18943     18942     18941     18949
     18943     18941     18949     18941     18943     18944     18943     18944     18945
     18943     18944     18946     18945     18944     18946     18944     18946     18947
     18944     18946     18948     18944     18946     18958     18947     18946     18948
     18947     18946     18958     18948     18946     18958     18941     18949     18950
     18941     18949     18951     18941     18949     18952     18950     18949     18951
     18950     18949     18952     18951     18949     18952     18949     18952     18953
     18952     18953     18954     18952     18953     18955     18954     18953     18955
     18953     18955     18956     18953     18955     18957     18953     18955     19002
     18956     18955     18957     18956     18955     19002     18957     18955     19002
     18946     18958     18959     18946     18958     18960     18946     18958     18961
     18959     18958     18960     18959     18958     18961     18960     18958     18961
     18958     18961     18962     18958     18961     18963     18958     18961     18964
     18962     18961     18963     18962     18961     18964     18963     18961     18964
     18961     18964     18965     18961     18964     18966     18961     18964     18967
     18965     18964     18966     18965     18964     18967     18966     18964     18967
     18964     18967     18968     18964     18967     18969     18964     18967     18970
     18968     18967     18969     18968     18967     18970     18969     18967     18970
     18967     18970     18971     18967     18970     18972     18967     18970     18973
     18971     18970     18972     18971     18970     18973     18972     18970     18973
     18970     18973     18974     18970     18973     18975     18970     18973     18976
     18974     18973     18975     18974     18973     18976     18975     18973     18976
     18973     18976     18977     18973     18976     18978     18973     18976     18981
     18977     18976     18978     18977     18976     18981     18978     18976     18981
     18976     18978     18979     18976     18978     18980     18976     18978     18981
     18979     18978     18980     18979     18978     18981     18980     18978     18981
     18976     18981     18978     18976     18981     18982     18976     18981     18983
     18978     18981     18982     18978     18981     18983     18982     18981     18983
     18981     18983     18984     18981     18983     18985     18981     18983     18986
     18984     18983     18985     18984     18983     18986     18985     18983     18986
     18983     18986     18987     18983     18986     18988     18983     18986     18989
     18987     18986     18988     18987     18986     18989     18988     18986     18989
     18986     18989     18990     18986     18989     18991     18986     18989     18992
     18990     18989     18991     18990     18989     18992     18991     18989     18992
     18989     18992     18993     18989     18992     18994     18989     18992     18995
     18993     18992     18994     18993     18992     18995     18994     18992     18995
     18992     18995     18996     18992     18995     18997     18992     18995     18998
     18996     18995     18997     18996     18995     18998     18997     18995     18998
     18995     18998     18999     18995     18998     19000     18995     18998     19001
     18999     18998     19000     18999     18998     19001     19000     18998     19001
     18955     19002     19003     18955     19002     19004     18955     19002     19005
     19003     19002     19004     19003     19002     19005     19004     19002     19005
     19002     19005     19006     19002     19005     19007     19002     19005     19008
     19006     19005     19007     19006     19005     19008     19007     19005     19008
     19005     19008     19009     19005     19008     19010     19005     19008     19011
     19009     19008     19010     19009     19008     19011     19010     19008     19011
     19008     19011     19012     19008     19011     19013     19008     19011     19014
     19012     19011     19013     19012     19011     19014     19013     19011     19014
     19011     19014     19015     19011     19014     19016     19011     19014     19017
     19015     19014     19016     19015     19014     19017     19016     19014     19017
     19014     19017     19018     19014     19017     19019     19014     19017     19020
     19018     19017     19019     19018     19017     19020     19019     19017     19020
     19017     19020     19021     19017     19020     19022     19017     19020     19023
     19021     19020     19022     19021     19020     19023     19022     19020     19023
     19020     19023     19024     19020     19023     19025     19020     19023     19026
     19024     19023     19025     19024     19023     19026     19025     19023     19026
     19023     19026     19027     19023     19026     19028     19023     19026     19029
     19027     19026     19028     19027     19026     19029     19028     19026     19029
     19026     19029     19030     19026     19029     19031     19026     19029     19032
     19030     19029     19031     19030     19029     19032     19031     19029     19032
     19029     19032     19033     19029     19032     19034     19029     19032     19035
     19033     19032     19034     19033     19032     19035     19034     19032     19035
     19032     19035     19036     19032     19035     19037     19032     19035     19038
     19036     19035     19037     19036     19035     19038     19037     19035     19038
     19035     19038     19039     19035     19038     19040     19035     19038     19041
     19039     19038     19040     19039     19038     19041     19040     19038     19041
     19038     19041     19042     19038     19041     19043     19038     19041     19044
     19042     19041     19043     19042     19041     19044     19043     19041     19044
     19046     19045     19047     19046     19045     19048     19046     19045     19049
     19047     19045     19048     19047     19045     19049     19048     19045     19049
     19045     19049     19050     19045     19049     19051     19045     19049     19052
     19050     19049     19051     19050     19049     19052     19051     19049     19052
     19049     19052     19053     19049     19052     19054     19049     19052     19059
     19053     19052     19054     19053     19052     19059     19054     19052     19059
     19056     19055     19057     19056     19055     19058     19056     19055     19059
     19057     19055     19058     19057     19055     19059     19058     19055     19059
     19055     19058     19060     19052     19059     19055     19058     19060     19061
     19058     19060     19062     19058     19060     19063     19061     19060     19062
     19061     19060     19063     19062     19060     19063     19060     19063     19064
     19060     19063     19065     19060     19063     19071     19064     19063     19065
     19064     19063     19071     19065     19063     19071     19063     19065     19066
     19065     19066     19067     19065     19066     19068     19067     19066     19068
     19066     19068     19069     19066     19068     19070     19066     19068     19080
     19069     19068     19070     19069     19068     19080     19070     19068     19080
     19063     19071     19072     19063     19071     19073     19063     19071     19074
     19072     19071     19073     19072     19071     19074     19073     19071     19074
     19071     19074     19075     19074     19075     19076     19074     19075     19077
     19076     19075     19077     19075     19077     19078     19075     19077     19079
     19075     19077     19124     19078     19077     19079     19078     19077     19124
     19079     19077     19124     19068     19080     19081     19068     19080     19082
     19068     19080     19083     19081     19080     19082     19081     19080     19083
     19082     19080     19083     19080     19083     19084     19080     19083     19085
     19080     19083     19086     19084     19083     19085     19084     19083     19086
     19085     19083     19086     19083     19086     19087     19083     19086     19088
     19083     19086     19089     19087     19086     19088     19087     19086     19089
     19088     19086     19089     19086     19089     19090     19086     19089     19091
     19086     19089     19092     19090     19089     19091     19090     19089     19092
     19091     19089     19092     19089     19092     19093     19089     19092     19094
     19089     19092     19095     19093     19092     19094     19093     19092     19095
     19094     19092     19095     19092     19095     19096     19092     19095     19097
     19092     19095     19098     19096     19095     19097     19096     19095     19098
     19097     19095     19098     19095     19098     19099     19095     19098     19100
     19095     19098     19103     19099     19098     19100     19099     19098     19103
     19100     19098     19103     19098     19100     19101     19098     19100     19102
     19098     19100     19103     19101     19100     19102     19101     19100     19103
     19102     19100     19103     19098     19103     19100     19098     19103     19104
     19098     19103     19105     19100     19103     19104     19100     19103     19105
     19104     19103     19105     19103     19105     19106     19103     19105     19107
     19103     19105     19108     19106     19105     19107     19106     19105     19108
     19107     19105     19108     19105     19108     19109     19105     19108     19110
     19105     19108     19111     19109     19108     19110     19109     19108     19111
     19110     19108     19111     19108     19111     19112     19108     19111     19113
     19108     19111     19114     19112     19111     19113     19112     19111     19114
     19113     19111     19114     19111     19114     19115     19111     19114     19116
     19111     19114     19117     19115     19114     19116     19115     19114     19117
     19116     19114     19117     19114     19117     19118     19114     19117     19119
     19114     19117     19120     19118     19117     19119     19118     19117     19120
     19119     19117     19120     19117     19120     19121     19117     19120     19122
     19117     19120     19123     19121     19120     19122     19121     19120     19123
     19122     19120     19123     19077     19124     19125     19077     19124     19126
     19077     19124     19127     19125     19124     19126     19125     19124     19127
     19126     19124     19127     19124     19127     19128     19124     19127     19129
     19124     19127     19130     19128     19127     19129     19128     19127     19130
     19129     19127     19130     19127     19130     19131     19127     19130     19132
     19127     19130     19133     19131     19130     19132     19131     19130     19133
     19132     19130     19133     19130     19133     19134     19130     19133     19135
     19130     19133     19136     19134     19133     19135     19134     19133     19136
     19135     19133     19136     19133     19136     19137     19133     19136     19138
     19133     19136     19139     19137     19136     19138     19137     19136     19139
     19138     19136     19139     19136     19139     19140     19136     19139     19141
     19136     19139     19142     19140     19139     19141     19140     19139     19142
     19141     19139     19142     19139     19142     19143     19139     19142     19144
     19139     19142     19145     19143     19142     19144     19143     19142     19145
     19144     19142     19145     19142     19145     19146     19142     19145     19147
     19142     19145     19148     19146     19145     19147     19146     19145     19148
     19147     19145     19148     19145     19148     19149     19145     19148     19150
     19145     19148     19151     19149     19148     19150     19149     19148     19151
     19150     19148     19151     19148     19151     19152     19148     19151     19153
     19148     19151     19154     19152     19151     19153     19152     19151     19154
     19153     19151     19154     19151     19154     19155     19151     19154     19156
     19151     19154     19157     19155     19154     19156     19155     19154     19157
     19156     19154     19157     19154     19157     19158     19154     19157     19159
     19154     19157     19160     19158     19157     19159     19158     19157     19160
     19159     19157     19160     19157     19160     19161     19157     19160     19162
     19157     19160     19163     19161     19160     19162     19161     19160     19163
     19162     19160     19163     19160     19163     19164     19160     19163     19165
     19160     19163     19166     19164     19163     19165     19164     19163     19166
     19165     19163     19166     19168     19167     19169     19168     19167     19170
     19168     19167     19172     19169     19167     19170     19169     19167     19172
     19170     19167     19172     19167     19170     19171     19167     19172     19173
     19167     19172     19174     19167     19172     19176     19173     19172     19174
     19173     19172     19176     19174     19172     19176     19172     19174     19175
     19172     19176     19177     19172     19176     19178     19172     19176     19183
     19177     19176     19178     19177     19176     19183     19178     19176     19183
     19180     19179     19181     19180     19179     19182     19180     19179     19183
     19181     19179     19182     19181     19179     19183     19182     19179     19183
     19179     19182     19184     19176     19183     19179     19182     19184     19185
     19182     19184     19186     19182     19184     19187     19185     19184     19186
     19185     19184     19187     19186     19184     19187     19184     19187     19188
     19184     19187     19189     19184     19187     19195     19188     19187     19189
     19188     19187     19195     19189     19187     19195     19187     19189     19190
     19189     19190     19191     19189     19190     19192     19191     19190     19192
     19190     19192     19193     19190     19192     19194     19190     19192     19204
     19193     19192     19194     19193     19192     19204     19194     19192     19204
     19187     19195     19196     19187     19195     19197     19187     19195     19198
     19196     19195     19197     19196     19195     19198     19197     19195     19198
     19195     19198     19199     19198     19199     19200     19198     19199     19201
     19200     19199     19201     19199     19201     19202     19199     19201     19203
     19199     19201     19245     19202     19201     19203     19202     19201     19245
     19203     19201     19245     19192     19204     19205     19192     19204     19206
     19192     19204     19207     19205     19204     19206     19205     19204     19207
     19206     19204     19207     19204     19207     19208     19204     19207     19209
     19204     19207     19210     19208     19207     19209     19208     19207     19210
     19209     19207     19210     19207     19210     19211     19207     19210     19212
     19207     19210     19213     19211     19210     19212     19211     19210     19213
     19212     19210     19213     19210     19213     19214     19210     19213     19215
     19210     19213     19216     19214     19213     19215     19214     19213     19216
     19215     19213     19216     19213     19216     19217     19213     19216     19218
     19213     19216     19219     19217     19216     19218     19217     19216     19219
     19218     19216     19219     19216     19219     19220     19216     19219     19221
     19216     19219     19222     19220     19219     19221     19220     19219     19222
     19221     19219     19222     19219     19222     19223     19219     19222     19224
     19223     19222     19224     19222     19224     19225     19222     19224     19226
     19225     19224     19226     19224     19226     19227     19224     19226     19228
     19224     19226     19229     19227     19226     19228     19227     19226     19229
     19228     19226     19229     19226     19229     19230     19226     19229     19231
     19226     19229     19232     19230     19229     19231     19230     19229     19232
     19231     19229     19232     19229     19232     19233     19229     19232     19234
     19229     19232     19235     19233     19232     19234     19233     19232     19235
     19234     19232     19235     19232     19235     19236     19232     19235     19237
     19232     19235     19238     19236     19235     19237     19236     19235     19238
     19237     19235     19238     19235     19238     19239     19235     19238     19240
     19235     19238     19241     19239     19238     19240     19239     19238     19241
     19240     19238     19241     19238     19241     19242     19238     19241     19243
     19238     19241     19244     19242     19241     19243     19242     19241     19244
     19243     19241     19244     19201     19245     19246     19201     19245     19247
     19201     19245     19248     19246     19245     19247     19246     19245     19248
     19247     19245     19248     19245     19248     19249     19245     19248     19250
     19245     19248     19251     19249     19248     19250     19249     19248     19251
     19250     19248     19251     19248     19251     19252     19248     19251     19253
     19248     19251     19254     19252     19251     19253     19252     19251     19254
     19253     19251     19254     19251     19254     19255     19251     19254     19256
     19251     19254     19257     19255     19254     19256     19255     19254     19257
     19256     19254     19257     19254     19257     19258     19254     19257     19259
     19254     19257     19260     19258     19257     19259     19258     19257     19260
     19259     19257     19260     19257     19260     19261     19257     19260     19262
     19257     19260     19263     19261     19260     19262     19261     19260     19263
     19262     19260     19263     19260     19263     19264     19260     19263     19265
     19260     19263     19266     19264     19263     19265     19264     19263     19266
     19265     19263     19266     19263     19266     19267     19263     19266     19268
     19263     19266     19269     19267     19266     19268     19267     19266     19269
     19268     19266     19269     19266     19269     19270     19266     19269     19271
     19266     19269     19272     19270     19269     19271     19270     19269     19272
     19271     19269     19272     19269     19272     19273     19269     19272     19274
     19269     19272     19275     19273     19272     19274     19273     19272     19275
     19274     19272     19275     19272     19275     19276     19272     19275     19277
     19272     19275     19278     19276     19275     19277     19276     19275     19278
     19277     19275     19278     19275     19278     19279     19275     19278     19280
     19275     19278     19281     19279     19278     19280     19279     19278     19281
     19280     19278     19281     19278     19281     19282     19278     19281     19283
     19278     19281     19284     19282     19281     19283     19282     19281     19284
     19283     19281     19284     19281     19284     19285     19281     19284     19286
     19281     19284     19287     19285     19284     19286     19285     19284     19287
     19286     19284     19287     19289     19288     19290     19289     19288     19291
     19289     19288     19292     19290     19288     19291     19290     19288     19292
     19291     19288     19292     19288     19292     19293     19288     19292     19294
     19288     19292     19295     19293     19292     19294     19293     19292     19295
     19294     19292     19295     19292     19295     19296     19292     19295     19297
     19292     19295     19302     19296     19295     19297     19296     19295     19302
     19297     19295     19302     19299     19298     19300     19299     19298     19301
     19299     19298     19302     19300     19298     19301     19300     19298     19302
     19301     19298     19302     19298     19301     19303     19295     19302     19298
     19301     19303     19304     19301     19303     19305     19301     19303     19306
     19304     19303     19305     19304     19303     19306     19305     19303     19306
     19303     19306     19307     19303     19306     19308     19303     19306     19314
     19307     19306     19308     19307     19306     19314     19308     19306     19314
     19306     19308     19309     19308     19309     19310     19308     19309     19311
     19310     19309     19311     19309     19311     19312     19309     19311     19313
     19309     19311     19323     19312     19311     19313     19312     19311     19323
     19313     19311     19323     19306     19314     19315     19306     19314     19316
     19306     19314     19317     19315     19314     19316     19315     19314     19317
     19316     19314     19317     19314     19317     19318     19317     19318     19319
     19317     19318     19320     19319     19318     19320     19318     19320     19321
     19318     19320     19322     19318     19320     19367     19321     19320     19322
     19321     19320     19367     19322     19320     19367     19311     19323     19324
     19311     19323     19325     19311     19323     19326     19324     19323     19325
     19324     19323     19326     19325     19323     19326     19323     19326     19327
     19323     19326     19328     19323     19326     19329     19327     19326     19328
     19327     19326     19329     19328     19326     19329     19326     19329     19330
     19326     19329     19331     19326     19329     19332     19330     19329     19331
     19330     19329     19332     19331     19329     19332     19329     19332     19333
     19329     19332     19334     19329     19332     19335     19333     19332     19334
     19333     19332     19335     19334     19332     19335     19332     19335     19336
     19332     19335     19337     19332     19335     19338     19336     19335     19337
     19336     19335     19338     19337     19335     19338     19335     19338     19339
     19335     19338     19340     19335     19338     19341     19339     19338     19340
     19339     19338     19341     19340     19338     19341     19338     19341     19342
     19338     19341     19343     19338     19341     19346     19342     19341     19343
     19342     19341     19346     19343     19341     19346     19341     19343     19344
     19341     19343     19345     19341     19343     19346     19344     19343     19345
     19344     19343     19346     19345     19343     19346     19341     19346     19343
     19341     19346     19347     19341     19346     19348     19343     19346     19347
     19343     19346     19348     19347     19346     19348     19346     19348     19349
     19346     19348     19350     19346     19348     19351     19349     19348     19350
     19349     19348     19351     19350     19348     19351     19348     19351     19352
     19348     19351     19353     19348     19351     19354     19352     19351     19353
     19352     19351     19354     19353     19351     19354     19351     19354     19355
     19351     19354     19356     19351     19354     19357     19355     19354     19356
     19355     19354     19357     19356     19354     19357     19354     19357     19358
     19354     19357     19359     19354     19357     19360     19358     19357     19359
     19358     19357     19360     19359     19357     19360     19357     19360     19361
     19357     19360     19362     19357     19360     19363     19361     19360     19362
     19361     19360     19363     19362     19360     19363     19360     19363     19364
     19360     19363     19365     19360     19363     19366     19364     19363     19365
     19364     19363     19366     19365     19363     19366     19320     19367     19368
     19320     19367     19369     19320     19367     19370     19368     19367     19369
     19368     19367     19370     19369     19367     19370     19367     19370     19371
     19367     19370     19372     19367     19370     19373     19371     19370     19372
     19371     19370     19373     19372     19370     19373     19370     19373     19374
     19370     19373     19375     19370     19373     19376     19374     19373     19375
     19374     19373     19376     19375     19373     19376     19373     19376     19377
     19373     19376     19378     19373     19376     19379     19377     19376     19378
     19377     19376     19379     19378     19376     19379     19376     19379     19380
     19376     19379     19381     19376     19379     19382     19380     19379     19381
     19380     19379     19382     19381     19379     19382     19379     19382     19383
     19379     19382     19384     19379     19382     19385     19383     19382     19384
     19383     19382     19385     19384     19382     19385     19382     19385     19386
     19382     19385     19387     19382     19385     19388     19386     19385     19387
     19386     19385     19388     19387     19385     19388     19385     19388     19389
     19385     19388     19390     19385     19388     19391     19389     19388     19390
     19389     19388     19391     19390     19388     19391     19388     19391     19392
     19388     19391     19393     19388     19391     19394     19392     19391     19393
     19392     19391     19394     19393     19391     19394     19391     19394     19395
     19391     19394     19396     19391     19394     19397     19395     19394     19396
     19395     19394     19397     19396     19394     19397     19394     19397     19398
     19394     19397     19399     19394     19397     19400     19398     19397     19399
     19398     19397     19400     19399     19397     19400     19397     19400     19401
     19397     19400     19402     19397     19400     19403     19401     19400     19402
     19401     19400     19403     19402     19400     19403     19400     19403     19404
     19400     19403     19405     19400     19403     19406     19404     19403     19405
     19404     19403     19406     19405     19403     19406     19403     19406     19407
     19403     19406     19408     19403     19406     19409     19407     19406     19408
     19407     19406     19409     19408     19406     19409     19411     19410     19412
     19411     19410     19413     19411     19410     19414     19412     19410     19413
     19412     19410     19414     19413     19410     19414     19410     19414     19415
     19410     19414     19416     19410     19414     19417     19415     19414     19416
     19415     19414     19417     19416     19414     19417     19414     19417     19418
     19414     19417     19419     19414     19417     19424     19418     19417     19419
     19418     19417     19424     19419     19417     19424     19421     19420     19422
     19421     19420     19423     19421     19420     19424     19422     19420     19423
     19422     19420     19424     19423     19420     19424     19420     19423     19425
     19417     19424     19420     19423     19425     19426     19423     19425     19427
     19423     19425     19428     19426     19425     19427     19426     19425     19428
     19427     19425     19428     19425     19428     19429     19425     19428     19430
     19425     19428     19436     19429     19428     19430     19429     19428     19436
     19430     19428     19436     19428     19430     19431     19430     19431     19432
     19430     19431     19433     19432     19431     19433     19431     19433     19434
     19431     19433     19435     19431     19433     19445     19434     19433     19435
     19434     19433     19445     19435     19433     19445     19428     19436     19437
     19428     19436     19438     19428     19436     19439     19437     19436     19438
     19437     19436     19439     19438     19436     19439     19436     19439     19440
     19439     19440     19441     19439     19440     19442     19441     19440     19442
     19440     19442     19443     19440     19442     19444     19440     19442     19489
     19443     19442     19444     19443     19442     19489     19444     19442     19489
     19433     19445     19446     19433     19445     19447     19433     19445     19448
     19446     19445     19447     19446     19445     19448     19447     19445     19448
     19445     19448     19449     19445     19448     19450     19445     19448     19451
     19449     19448     19450     19449     19448     19451     19450     19448     19451
     19448     19451     19452     19448     19451     19453     19448     19451     19454
     19452     19451     19453     19452     19451     19454     19453     19451     19454
     19451     19454     19455     19451     19454     19456     19451     19454     19457
     19455     19454     19456     19455     19454     19457     19456     19454     19457
     19454     19457     19458     19454     19457     19459     19454     19457     19460
     19458     19457     19459     19458     19457     19460     19459     19457     19460
     19457     19460     19461     19457     19460     19462     19457     19460     19463
     19461     19460     19462     19461     19460     19463     19462     19460     19463
     19460     19463     19464     19460     19463     19465     19460     19463     19468
     19464     19463     19465     19464     19463     19468     19465     19463     19468
     19463     19465     19466     19463     19465     19467     19463     19465     19468
     19466     19465     19467     19466     19465     19468     19467     19465     19468
     19463     19468     19465     19463     19468     19469     19463     19468     19470
     19465     19468     19469     19465     19468     19470     19469     19468     19470
     19468     19470     19471     19468     19470     19472     19468     19470     19473
     19471     19470     19472     19471     19470     19473     19472     19470     19473
     19470     19473     19474     19470     19473     19475     19470     19473     19476
     19474     19473     19475     19474     19473     19476     19475     19473     19476
     19473     19476     19477     19473     19476     19478     19473     19476     19479
     19477     19476     19478     19477     19476     19479     19478     19476     19479
     19476     19479     19480     19476     19479     19481     19476     19479     19482
     19480     19479     19481     19480     19479     19482     19481     19479     19482
     19479     19482     19483     19479     19482     19484     19479     19482     19485
     19483     19482     19484     19483     19482     19485     19484     19482     19485
     19482     19485     19486     19482     19485     19487     19482     19485     19488
     19486     19485     19487     19486     19485     19488     19487     19485     19488
     19442     19489     19490     19442     19489     19491     19442     19489     19492
     19490     19489     19491     19490     19489     19492     19491     19489     19492
     19489     19492     19493     19489     19492     19494     19489     19492     19495
     19493     19492     19494     19493     19492     19495     19494     19492     19495
     19492     19495     19496     19492     19495     19497     19492     19495     19498
     19496     19495     19497     19496     19495     19498     19497     19495     19498
     19495     19498     19499     19495     19498     19500     19495     19498     19501
     19499     19498     19500     19499     19498     19501     19500     19498     19501
     19498     19501     19502     19498     19501     19503     19498     19501     19504
     19502     19501     19503     19502     19501     19504     19503     19501     19504
     19501     19504     19505     19501     19504     19506     19501     19504     19507
     19505     19504     19506     19505     19504     19507     19506     19504     19507
     19504     19507     19508     19504     19507     19509     19504     19507     19510
     19508     19507     19509     19508     19507     19510     19509     19507     19510
     19507     19510     19511     19507     19510     19512     19507     19510     19513
     19511     19510     19512     19511     19510     19513     19512     19510     19513
     19510     19513     19514     19510     19513     19515     19510     19513     19516
     19514     19513     19515     19514     19513     19516     19515     19513     19516
     19513     19516     19517     19513     19516     19518     19513     19516     19519
     19517     19516     19518     19517     19516     19519     19518     19516     19519
     19516     19519     19520     19516     19519     19521     19516     19519     19522
     19520     19519     19521     19520     19519     19522     19521     19519     19522
     19519     19522     19523     19519     19522     19524     19519     19522     19525
     19523     19522     19524     19523     19522     19525     19524     19522     19525
     19522     19525     19526     19522     19525     19527     19522     19525     19528
     19526     19525     19527     19526     19525     19528     19527     19525     19528
     19525     19528     19529     19525     19528     19530     19525     19528     19531
     19529     19528     19530     19529     19528     19531     19530     19528     19531
     19533     19532     19534     19533     19532     19535     19533     19532     19536
     19534     19532     19535     19534     19532     19536     19535     19532     19536
     19532     19536     19537     19532     19536     19538     19532     19536     19539
     19537     19536     19538     19537     19536     19539     19538     19536     19539
     19536     19539     19540     19536     19539     19541     19536     19539     19546
     19540     19539     19541     19540     19539     19546     19541     19539     19546
     19543     19542     19544     19543     19542     19545     19543     19542     19546
     19544     19542     19545     19544     19542     19546     19545     19542     19546
     19542     19545     19547     19539     19546     19542     19545     19547     19548
     19545     19547     19549     19545     19547     19550     19548     19547     19549
     19548     19547     19550     19549     19547     19550     19547     19550     19551
     19547     19550     19552     19547     19550     19558     19551     19550     19552
     19551     19550     19558     19552     19550     19558     19550     19552     19553
     19552     19553     19554     19552     19553     19555     19554     19553     19555
     19553     19555     19556     19553     19555     19557     19553     19555     19567
     19556     19555     19557     19556     19555     19567     19557     19555     19567
     19550     19558     19559     19550     19558     19560     19550     19558     19561
     19559     19558     19560     19559     19558     19561     19560     19558     19561
     19558     19561     19562     19561     19562     19563     19561     19562     19564
     19563     19562     19564     19562     19564     19565     19562     19564     19566
     19562     19564     19611     19565     19564     19566     19565     19564     19611
     19566     19564     19611     19555     19567     19568     19555     19567     19569
     19555     19567     19570     19568     19567     19569     19568     19567     19570
     19569     19567     19570     19567     19570     19571     19567     19570     19572
     19567     19570     19573     19571     19570     19572     19571     19570     19573
     19572     19570     19573     19570     19573     19574     19570     19573     19575
     19570     19573     19576     19574     19573     19575     19574     19573     19576
     19575     19573     19576     19573     19576     19577     19573     19576     19578
     19573     19576     19579     19577     19576     19578     19577     19576     19579
     19578     19576     19579     19576     19579     19580     19576     19579     19581
     19576     19579     19582     19580     19579     19581     19580     19579     19582
     19581     19579     19582     19579     19582     19583     19579     19582     19584
     19579     19582     19585     19583     19582     19584     19583     19582     19585
     19584     19582     19585     19582     19585     19586     19582     19585     19587
     19582     19585     19590     19586     19585     19587     19586     19585     19590
     19587     19585     19590     19585     19587     19588     19585     19587     19589
     19585     19587     19590     19588     19587     19589     19588     19587     19590
     19589     19587     19590     19585     19590     19587     19585     19590     19591
     19585     19590     19592     19587     19590     19591     19587     19590     19592
     19591     19590     19592     19590     19592     19593     19590     19592     19594
     19590     19592     19595     19593     19592     19594     19593     19592     19595
     19594     19592     19595     19592     19595     19596     19592     19595     19597
     19592     19595     19598     19596     19595     19597     19596     19595     19598
     19597     19595     19598     19595     19598     19599     19595     19598     19600
     19595     19598     19601     19599     19598     19600     19599     19598     19601
     19600     19598     19601     19598     19601     19602     19598     19601     19603
     19598     19601     19604     19602     19601     19603     19602     19601     19604
     19603     19601     19604     19601     19604     19605     19601     19604     19606
     19601     19604     19607     19605     19604     19606     19605     19604     19607
     19606     19604     19607     19604     19607     19608     19604     19607     19609
     19604     19607     19610     19608     19607     19609     19608     19607     19610
     19609     19607     19610     19564     19611     19612     19564     19611     19613
     19564     19611     19614     19612     19611     19613     19612     19611     19614
     19613     19611     19614     19611     19614     19615     19611     19614     19616
     19611     19614     19617     19615     19614     19616     19615     19614     19617
     19616     19614     19617     19614     19617     19618     19614     19617     19619
     19614     19617     19620     19618     19617     19619     19618     19617     19620
     19619     19617     19620     19617     19620     19621     19617     19620     19622
     19617     19620     19623     19621     19620     19622     19621     19620     19623
     19622     19620     19623     19620     19623     19624     19620     19623     19625
     19620     19623     19626     19624     19623     19625     19624     19623     19626
     19625     19623     19626     19623     19626     19627     19623     19626     19628
     19623     19626     19629     19627     19626     19628     19627     19626     19629
     19628     19626     19629     19626     19629     19630     19626     19629     19631
     19626     19629     19632     19630     19629     19631     19630     19629     19632
     19631     19629     19632     19629     19632     19633     19629     19632     19634
     19629     19632     19635     19633     19632     19634     19633     19632     19635
     19634     19632     19635     19632     19635     19636     19632     19635     19637
     19632     19635     19638     19636     19635     19637     19636     19635     19638
     19637     19635     19638     19635     19638     19639     19635     19638     19640
     19635     19638     19641     19639     19638     19640     19639     19638     19641
     19640     19638     19641     19638     19641     19642     19638     19641     19643
     19638     19641     19644     19642     19641     19643     19642     19641     19644
     19643     19641     19644     19641     19644     19645     19641     19644     19646
     19641     19644     19647     19645     19644     19646     19645     19644     19647
     19646     19644     19647     19644     19647     19648     19644     19647     19649
     19644     19647     19650     19648     19647     19649     19648     19647     19650
     19649     19647     19650     19647     19650     19651     19647     19650     19652
     19647     19650     19653     19651     19650     19652     19651     19650     19653
     19652     19650     19653     19655     19654     19656     19655     19654     19657
     19655     19654     19659     19656     19654     19657     19656     19654     19659
     19657     19654     19659     19654     19657     19658     19654     19659     19660
     19654     19659     19661     19654     19659     19663     19660     19659     19661
     19660     19659     19663     19661     19659     19663     19659     19661     19662
     19659     19663     19664     19659     19663     19665     19659     19663     19670
     19664     19663     19665     19664     19663     19670     19665     19663     19670
     19667     19666     19668     19667     19666     19669     19667     19666     19670
     19668     19666     19669     19668     19666     19670     19669     19666     19670
     19666     19669     19671     19663     19670     19666     19669     19671     19672
     19669     19671     19673     19669     19671     19674     19672     19671     19673
     19672     19671     19674     19673     19671     19674     19671     19674     19675
     19671     19674     19676     19671     19674     19682     19675     19674     19676
     19675     19674     19682     19676     19674     19682     19674     19676     19677
     19676     19677     19678     19676     19677     19679     19678     19677     19679
     19677     19679     19680     19677     19679     19681     19677     19679     19691
     19680     19679     19681     19680     19679     19691     19681     19679     19691
     19674     19682     19683     19674     19682     19684     19674     19682     19685
     19683     19682     19684     19683     19682     19685     19684     19682     19685
     19682     19685     19686     19685     19686     19687     19685     19686     19688
     19687     19686     19688     19686     19688     19689     19686     19688     19690
     19686     19688     19735     19689     19688     19690     19689     19688     19735
     19690     19688     19735     19679     19691     19692     19679     19691     19693
     19679     19691     19694     19692     19691     19693     19692     19691     19694
     19693     19691     19694     19691     19694     19695     19691     19694     19696
     19691     19694     19697     19695     19694     19696     19695     19694     19697
     19696     19694     19697     19694     19697     19698     19694     19697     19699
     19694     19697     19700     19698     19697     19699     19698     19697     19700
     19699     19697     19700     19697     19700     19701     19697     19700     19702
     19697     19700     19703     19701     19700     19702     19701     19700     19703
     19702     19700     19703     19700     19703     19704     19700     19703     19705
     19700     19703     19706     19704     19703     19705     19704     19703     19706
     19705     19703     19706     19703     19706     19707     19703     19706     19708
     19703     19706     19709     19707     19706     19708     19707     19706     19709
     19708     19706     19709     19706     19709     19710     19706     19709     19711
     19706     19709     19714     19710     19709     19711     19710     19709     19714
     19711     19709     19714     19709     19711     19712     19709     19711     19713
     19709     19711     19714     19712     19711     19713     19712     19711     19714
     19713     19711     19714     19709     19714     19711     19709     19714     19715
     19709     19714     19716     19711     19714     19715     19711     19714     19716
     19715     19714     19716     19714     19716     19717     19714     19716     19718
     19714     19716     19719     19717     19716     19718     19717     19716     19719
     19718     19716     19719     19716     19719     19720     19716     19719     19721
     19716     19719     19722     19720     19719     19721     19720     19719     19722
     19721     19719     19722     19719     19722     19723     19719     19722     19724
     19719     19722     19725     19723     19722     19724     19723     19722     19725
     19724     19722     19725     19722     19725     19726     19722     19725     19727
     19722     19725     19728     19726     19725     19727     19726     19725     19728
     19727     19725     19728     19725     19728     19729     19725     19728     19730
     19725     19728     19731     19729     19728     19730     19729     19728     19731
     19730     19728     19731     19728     19731     19732     19728     19731     19733
     19728     19731     19734     19732     19731     19733     19732     19731     19734
     19733     19731     19734     19688     19735     19736     19688     19735     19737
     19688     19735     19738     19736     19735     19737     19736     19735     19738
     19737     19735     19738     19735     19738     19739     19735     19738     19740
     19735     19738     19741     19739     19738     19740     19739     19738     19741
     19740     19738     19741     19738     19741     19742     19738     19741     19743
     19738     19741     19744     19742     19741     19743     19742     19741     19744
     19743     19741     19744     19741     19744     19745     19741     19744     19746
     19741     19744     19747     19745     19744     19746     19745     19744     19747
     19746     19744     19747     19744     19747     19748     19744     19747     19749
     19744     19747     19750     19748     19747     19749     19748     19747     19750
     19749     19747     19750     19747     19750     19751     19747     19750     19752
     19747     19750     19753     19751     19750     19752     19751     19750     19753
     19752     19750     19753     19750     19753     19754     19750     19753     19755
     19750     19753     19756     19754     19753     19755     19754     19753     19756
     19755     19753     19756     19753     19756     19757     19753     19756     19758
     19753     19756     19759     19757     19756     19758     19757     19756     19759
     19758     19756     19759     19756     19759     19760     19756     19759     19761
     19756     19759     19762     19760     19759     19761     19760     19759     19762
     19761     19759     19762     19759     19762     19763     19759     19762     19764
     19759     19762     19765     19763     19762     19764     19763     19762     19765
     19764     19762     19765     19762     19765     19766     19762     19765     19767
     19762     19765     19768     19766     19765     19767     19766     19765     19768
     19767     19765     19768     19765     19768     19769     19765     19768     19770
     19765     19768     19771     19769     19768     19770     19769     19768     19771
     19770     19768     19771     19768     19771     19772     19768     19771     19773
     19768     19771     19774     19772     19771     19773     19772     19771     19774
     19773     19771     19774     19771     19774     19775     19771     19774     19776
     19771     19774     19777     19775     19774     19776     19775     19774     19777
     19776     19774     19777     19779     19778     19780     19779     19778     19781
     19779     19778     19782     19780     19778     19781     19780     19778     19782
     19781     19778     19782     19778     19782     19783     19778     19782     19784
     19778     19782     19785     19783     19782     19784     19783     19782     19785
     19784     19782     19785     19782     19785     19786     19782     19785     19787
     19782     19785     19792     19786     19785     19787     19786     19785     19792
     19787     19785     19792     19789     19788     19790     19789     19788     19791
     19789     19788     19792     19790     19788     19791     19790     19788     19792
     19791     19788     19792     19788     19791     19793     19785     19792     19788
     19791     19793     19794     19791     19793     19795     19791     19793     19796
     19794     19793     19795     19794     19793     19796     19795     19793     19796
     19793     19796     19797     19793     19796     19798     19793     19796     19804
     19797     19796     19798     19797     19796     19804     19798     19796     19804
     19796     19798     19799     19798     19799     19800     19798     19799     19801
     19800     19799     19801     19799     19801     19802     19799     19801     19803
     19799     19801     19813     19802     19801     19803     19802     19801     19813
     19803     19801     19813     19796     19804     19805     19796     19804     19806
     19796     19804     19807     19805     19804     19806     19805     19804     19807
     19806     19804     19807     19804     19807     19808     19807     19808     19809
     19807     19808     19810     19809     19808     19810     19808     19810     19811
     19808     19810     19812     19808     19810     19854     19811     19810     19812
     19811     19810     19854     19812     19810     19854     19801     19813     19814
     19801     19813     19815     19801     19813     19816     19814     19813     19815
     19814     19813     19816     19815     19813     19816     19813     19816     19817
     19813     19816     19818     19813     19816     19819     19817     19816     19818
     19817     19816     19819     19818     19816     19819     19816     19819     19820
     19816     19819     19821     19816     19819     19822     19820     19819     19821
     19820     19819     19822     19821     19819     19822     19819     19822     19823
     19819     19822     19824     19819     19822     19825     19823     19822     19824
     19823     19822     19825     19824     19822     19825     19822     19825     19826
     19822     19825     19827     19822     19825     19828     19826     19825     19827
     19826     19825     19828     19827     19825     19828     19825     19828     19829
     19825     19828     19830     19825     19828     19831     19829     19828     19830
     19829     19828     19831     19830     19828     19831     19828     19831     19832
     19828     19831     19833     19832     19831     19833     19831     19833     19834
     19831     19833     19835     19834     19833     19835     19833     19835     19836
     19833     19835     19837     19833     19835     19838     19836     19835     19837
     19836     19835     19838     19837     19835     19838     19835     19838     19839
     19835     19838     19840     19835     19838     19841     19839     19838     19840
     19839     19838     19841     19840     19838     19841     19838     19841     19842
     19838     19841     19843     19838     19841     19844     19842     19841     19843
     19842     19841     19844     19843     19841     19844     19841     19844     19845
     19841     19844     19846     19841     19844     19847     19845     19844     19846
     19845     19844     19847     19846     19844     19847     19844     19847     19848
     19844     19847     19849     19844     19847     19850     19848     19847     19849
     19848     19847     19850     19849     19847     19850     19847     19850     19851
     19847     19850     19852     19847     19850     19853     19851     19850     19852
     19851     19850     19853     19852     19850     19853     19810     19854     19855
     19810     19854     19856     19810     19854     19857     19855     19854     19856
     19855     19854     19857     19856     19854     19857     19854     19857     19858
     19854     19857     19859     19854     19857     19860     19858     19857     19859
     19858     19857     19860     19859     19857     19860     19857     19860     19861
     19857     19860     19862     19857     19860     19863     19861     19860     19862
     19861     19860     19863     19862     19860     19863     19860     19863     19864
     19860     19863     19865     19860     19863     19866     19864     19863     19865
     19864     19863     19866     19865     19863     19866     19863     19866     19867
     19863     19866     19868     19863     19866     19869     19867     19866     19868
     19867     19866     19869     19868     19866     19869     19866     19869     19870
     19866     19869     19871     19866     19869     19872     19870     19869     19871
     19870     19869     19872     19871     19869     19872     19869     19872     19873
     19869     19872     19874     19873     19872     19874     19872     19874     19875
     19872     19874     19876     19875     19874     19876     19874     19876     19877
     19874     19876     19878     19874     19876     19879     19877     19876     19878
     19877     19876     19879     19878     19876     19879     19876     19879     19880
     19876     19879     19881     19876     19879     19882     19880     19879     19881
     19880     19879     19882     19881     19879     19882     19879     19882     19883
     19879     19882     19884     19879     19882     19885     19883     19882     19884
     19883     19882     19885     19884     19882     19885     19882     19885     19886
     19882     19885     19887     19882     19885     19888     19886     19885     19887
     19886     19885     19888     19887     19885     19888     19885     19888     19889
     19885     19888     19890     19885     19888     19891     19889     19888     19890
     19889     19888     19891     19890     19888     19891     19888     19891     19892
     19888     19891     19893     19888     19891     19894     19892     19891     19893
     19892     19891     19894     19893     19891     19894     19891     19894     19895
     19891     19894     19896     19891     19894     19897     19895     19894     19896
     19895     19894     19897     19896     19894     19897     19894     19897     19898
     19894     19897     19899     19894     19897     19900     19898     19897     19899
     19898     19897     19900     19899     19897     19900     19902     19901     19903
     19902     19901     19904     19902     19901     19905     19903     19901     19904
     19903     19901     19905     19904     19901     19905     19901     19905     19906
     19901     19905     19907     19901     19905     19908     19906     19905     19907
     19906     19905     19908     19907     19905     19908     19905     19908     19909
     19905     19908     19910     19905     19908     19915     19909     19908     19910
     19909     19908     19915     19910     19908     19915     19912     19911     19913
     19912     19911     19914     19912     19911     19915     19913     19911     19914
     19913     19911     19915     19914     19911     19915     19911     19914     19916
     19908     19915     19911     19914     19916     19917     19914     19916     19918
     19914     19916     19919     19917     19916     19918     19917     19916     19919
     19918     19916     19919     19916     19919     19920     19916     19919     19921
     19916     19919     19927     19920     19919     19921     19920     19919     19927
     19921     19919     19927     19919     19921     19922     19921     19922     19923
     19921     19922     19924     19923     19922     19924     19922     19924     19925
     19922     19924     19926     19922     19924     19936     19925     19924     19926
     19925     19924     19936     19926     19924     19936     19919     19927     19928
     19919     19927     19929     19919     19927     19930     19928     19927     19929
     19928     19927     19930     19929     19927     19930     19927     19930     19931
     19930     19931     19932     19930     19931     19933     19932     19931     19933
     19931     19933     19934     19931     19933     19935     19931     19933     19980
     19934     19933     19935     19934     19933     19980     19935     19933     19980
     19924     19936     19937     19924     19936     19938     19924     19936     19939
     19937     19936     19938     19937     19936     19939     19938     19936     19939
     19936     19939     19940     19936     19939     19941     19936     19939     19942
     19940     19939     19941     19940     19939     19942     19941     19939     19942
     19939     19942     19943     19939     19942     19944     19939     19942     19945
     19943     19942     19944     19943     19942     19945     19944     19942     19945
     19942     19945     19946     19942     19945     19947     19942     19945     19948
     19946     19945     19947     19946     19945     19948     19947     19945     19948
     19945     19948     19949     19945     19948     19950     19945     19948     19951
     19949     19948     19950     19949     19948     19951     19950     19948     19951
     19948     19951     19952     19948     19951     19953     19948     19951     19954
     19952     19951     19953     19952     19951     19954     19953     19951     19954
     19951     19954     19955     19951     19954     19956     19951     19954     19959
     19955     19954     19956     19955     19954     19959     19956     19954     19959
     19954     19956     19957     19954     19956     19958     19954     19956     19959
     19957     19956     19958     19957     19956     19959     19958     19956     19959
     19954     19959     19956     19954     19959     19960     19954     19959     19961
     19956     19959     19960     19956     19959     19961     19960     19959     19961
     19959     19961     19962     19959     19961     19963     19959     19961     19964
     19962     19961     19963     19962     19961     19964     19963     19961     19964
     19961     19964     19965     19961     19964     19966     19961     19964     19967
     19965     19964     19966     19965     19964     19967     19966     19964     19967
     19964     19967     19968     19964     19967     19969     19964     19967     19970
     19968     19967     19969     19968     19967     19970     19969     19967     19970
     19967     19970     19971     19967     19970     19972     19967     19970     19973
     19971     19970     19972     19971     19970     19973     19972     19970     19973
     19970     19973     19974     19970     19973     19975     19970     19973     19976
     19974     19973     19975     19974     19973     19976     19975     19973     19976
     19973     19976     19977     19973     19976     19978     19973     19976     19979
     19977     19976     19978     19977     19976     19979     19978     19976     19979
     19933     19980     19981     19933     19980     19982     19933     19980     19983
     19981     19980     19982     19981     19980     19983     19982     19980     19983
     19980     19983     19984     19980     19983     19985     19980     19983     19986
     19984     19983     19985     19984     19983     19986     19985     19983     19986
     19983     19986     19987     19983     19986     19988     19983     19986     19989
     19987     19986     19988     19987     19986     19989     19988     19986     19989
     19986     19989     19990     19986     19989     19991     19986     19989     19992
     19990     19989     19991     19990     19989     19992     19991     19989     19992
     19989     19992     19993     19989     19992     19994     19989     19992     19995
     19993     19992     19994     19993     19992     19995     19994     19992     19995
     19992     19995     19996     19992     19995     19997     19992     19995     19998
     19996     19995     19997     19996     19995     19998     19997     19995     19998
     19995     19998     19999     19995     19998     20000     19995     19998     20001
     19999     19998     20000     19999     19998     20001     20000     19998     20001
     19998     20001     20002     19998     20001     20003     19998     20001     20004
     20002     20001     20003     20002     20001     20004     20003     20001     20004
     20001     20004     20005     20001     20004     20006     20001     20004     20007
     20005     20004     20006     20005     20004     20007     20006     20004     20007
     20004     20007     20008     20004     20007     20009     20004     20007     20010
     20008     20007     20009     20008     20007     20010     20009     20007     20010
     20007     20010     20011     20007     20010     20012     20007     20010     20013
     20011     20010     20012     20011     20010     20013     20012     20010     20013
     20010     20013     20014     20010     20013     20015     20010     20013     20016
     20014     20013     20015     20014     20013     20016     20015     20013     20016
     20013     20016     20017     20013     20016     20018     20013     20016     20019
     20017     20016     20018     20017     20016     20019     20018     20016     20019
     20016     20019     20020     20016     20019     20021     20016     20019     20022
     20020     20019     20021     20020     20019     20022     20021     20019     20022
     20024     20023     20025     20024     20023     20026     20024     20023     20027
     20025     20023     20026     20025     20023     20027     20026     20023     20027
     20023     20027     20028     20023     20027     20029     20023     20027     20030
     20028     20027     20029     20028     20027     20030     20029     20027     20030
     20027     20030     20031     20027     20030     20032     20027     20030     20037
     20031     20030     20032     20031     20030     20037     20032     20030     20037
     20034     20033     20035     20034     20033     20036     20034     20033     20037
     20035     20033     20036     20035     20033     20037     20036     20033     20037
     20033     20036     20038     20030     20037     20033     20036     20038     20039
     20036     20038     20040     20036     20038     20041     20039     20038     20040
     20039     20038     20041     20040     20038     20041     20038     20041     20042
     20038     20041     20043     20038     20041     20049     20042     20041     20043
     20042     20041     20049     20043     20041     20049     20041     20043     20044
     20043     20044     20045     20043     20044     20046     20045     20044     20046
     20044     20046     20047     20044     20046     20048     20044     20046     20058
     20047     20046     20048     20047     20046     20058     20048     20046     20058
     20041     20049     20050     20041     20049     20051     20041     20049     20052
     20050     20049     20051     20050     20049     20052     20051     20049     20052
     20049     20052     20053     20052     20053     20054     20052     20053     20055
     20054     20053     20055     20053     20055     20056     20053     20055     20057
     20053     20055     20102     20056     20055     20057     20056     20055     20102
     20057     20055     20102     20046     20058     20059     20046     20058     20060
     20046     20058     20061     20059     20058     20060     20059     20058     20061
     20060     20058     20061     20058     20061     20062     20058     20061     20063
     20058     20061     20064     20062     20061     20063     20062     20061     20064
     20063     20061     20064     20061     20064     20065     20061     20064     20066
     20061     20064     20067     20065     20064     20066     20065     20064     20067
     20066     20064     20067     20064     20067     20068     20064     20067     20069
     20064     20067     20070     20068     20067     20069     20068     20067     20070
     20069     20067     20070     20067     20070     20071     20067     20070     20072
     20067     20070     20073     20071     20070     20072     20071     20070     20073
     20072     20070     20073     20070     20073     20074     20070     20073     20075
     20070     20073     20076     20074     20073     20075     20074     20073     20076
     20075     20073     20076     20073     20076     20077     20073     20076     20078
     20073     20076     20081     20077     20076     20078     20077     20076     20081
     20078     20076     20081     20076     20078     20079     20076     20078     20080
     20076     20078     20081     20079     20078     20080     20079     20078     20081
     20080     20078     20081     20076     20081     20078     20076     20081     20082
     20076     20081     20083     20078     20081     20082     20078     20081     20083
     20082     20081     20083     20081     20083     20084     20081     20083     20085
     20081     20083     20086     20084     20083     20085     20084     20083     20086
     20085     20083     20086     20083     20086     20087     20083     20086     20088
     20083     20086     20089     20087     20086     20088     20087     20086     20089
     20088     20086     20089     20086     20089     20090     20086     20089     20091
     20086     20089     20092     20090     20089     20091     20090     20089     20092
     20091     20089     20092     20089     20092     20093     20089     20092     20094
     20089     20092     20095     20093     20092     20094     20093     20092     20095
     20094     20092     20095     20092     20095     20096     20092     20095     20097
     20092     20095     20098     20096     20095     20097     20096     20095     20098
     20097     20095     20098     20095     20098     20099     20095     20098     20100
     20095     20098     20101     20099     20098     20100     20099     20098     20101
     20100     20098     20101     20055     20102     20103     20055     20102     20104
     20055     20102     20105     20103     20102     20104     20103     20102     20105
     20104     20102     20105     20102     20105     20106     20102     20105     20107
     20102     20105     20108     20106     20105     20107     20106     20105     20108
     20107     20105     20108     20105     20108     20109     20105     20108     20110
     20105     20108     20111     20109     20108     20110     20109     20108     20111
     20110     20108     20111     20108     20111     20112     20108     20111     20113
     20108     20111     20114     20112     20111     20113     20112     20111     20114
     20113     20111     20114     20111     20114     20115     20111     20114     20116
     20111     20114     20117     20115     20114     20116     20115     20114     20117
     20116     20114     20117     20114     20117     20118     20114     20117     20119
     20114     20117     20120     20118     20117     20119     20118     20117     20120
     20119     20117     20120     20117     20120     20121     20117     20120     20122
     20117     20120     20123     20121     20120     20122     20121     20120     20123
     20122     20120     20123     20120     20123     20124     20120     20123     20125
     20120     20123     20126     20124     20123     20125     20124     20123     20126
     20125     20123     20126     20123     20126     20127     20123     20126     20128
     20123     20126     20129     20127     20126     20128     20127     20126     20129
     20128     20126     20129     20126     20129     20130     20126     20129     20131
     20126     20129     20132     20130     20129     20131     20130     20129     20132
     20131     20129     20132     20129     20132     20133     20129     20132     20134
     20129     20132     20135     20133     20132     20134     20133     20132     20135
     20134     20132     20135     20132     20135     20136     20132     20135     20137
     20132     20135     20138     20136     20135     20137     20136     20135     20138
     20137     20135     20138     20135     20138     20139     20135     20138     20140
     20135     20138     20141     20139     20138     20140     20139     20138     20141
     20140     20138     20141     20143     20142     20144     20143     20142     20145
     20143     20142     20147     20144     20142     20145     20144     20142     20147
     20145     20142     20147     20142     20145     20146     20142     20147     20148
     20142     20147     20149     20142     20147     20151     20148     20147     20149
     20148     20147     20151     20149     20147     20151     20147     20149     20150
     20147     20151     20152     20147     20151     20153     20147     20151     20158
     20152     20151     20153     20152     20151     20158     20153     20151     20158
     20155     20154     20156     20155     20154     20157     20155     20154     20158
     20156     20154     20157     20156     20154     20158     20157     20154     20158
     20154     20157     20159     20151     20158     20154     20157     20159     20160
     20157     20159     20161     20157     20159     20162     20160     20159     20161
     20160     20159     20162     20161     20159     20162     20159     20162     20163
     20159     20162     20164     20159     20162     20170     20163     20162     20164
     20163     20162     20170     20164     20162     20170     20162     20164     20165
     20164     20165     20166     20164     20165     20167     20166     20165     20167
     20165     20167     20168     20165     20167     20169     20165     20167     20179
     20168     20167     20169     20168     20167     20179     20169     20167     20179
     20162     20170     20171     20162     20170     20172     20162     20170     20173
     20171     20170     20172     20171     20170     20173     20172     20170     20173
     20170     20173     20174     20173     20174     20175     20173     20174     20176
     20175     20174     20176     20174     20176     20177     20174     20176     20178
     20174     20176     20220     20177     20176     20178     20177     20176     20220
     20178     20176     20220     20167     20179     20180     20167     20179     20181
     20167     20179     20182     20180     20179     20181     20180     20179     20182
     20181     20179     20182     20179     20182     20183     20179     20182     20184
     20179     20182     20185     20183     20182     20184     20183     20182     20185
     20184     20182     20185     20182     20185     20186     20182     20185     20187
     20182     20185     20188     20186     20185     20187     20186     20185     20188
     20187     20185     20188     20185     20188     20189     20185     20188     20190
     20185     20188     20191     20189     20188     20190     20189     20188     20191
     20190     20188     20191     20188     20191     20192     20188     20191     20193
     20188     20191     20194     20192     20191     20193     20192     20191     20194
     20193     20191     20194     20191     20194     20195     20191     20194     20196
     20191     20194     20197     20195     20194     20196     20195     20194     20197
     20196     20194     20197     20194     20197     20198     20194     20197     20199
     20198     20197     20199     20197     20199     20200     20197     20199     20201
     20200     20199     20201     20199     20201     20202     20199     20201     20203
     20199     20201     20204     20202     20201     20203     20202     20201     20204
     20203     20201     20204     20201     20204     20205     20201     20204     20206
     20201     20204     20207     20205     20204     20206     20205     20204     20207
     20206     20204     20207     20204     20207     20208     20204     20207     20209
     20204     20207     20210     20208     20207     20209     20208     20207     20210
     20209     20207     20210     20207     20210     20211     20207     20210     20212
     20207     20210     20213     20211     20210     20212     20211     20210     20213
     20212     20210     20213     20210     20213     20214     20210     20213     20215
     20210     20213     20216     20214     20213     20215     20214     20213     20216
     20215     20213     20216     20213     20216     20217     20213     20216     20218
     20213     20216     20219     20217     20216     20218     20217     20216     20219
     20218     20216     20219     20176     20220     20221     20176     20220     20222
     20176     20220     20223     20221     20220     20222     20221     20220     20223
     20222     20220     20223     20220     20223     20224     20220     20223     20225
     20220     20223     20226     20224     20223     20225     20224     20223     20226
     20225     20223     20226     20223     20226     20227     20223     20226     20228
     20223     20226     20229     20227     20226     20228     20227     20226     20229
     20228     20226     20229     20226     20229     20230     20226     20229     20231
     20226     20229     20232     20230     20229     20231     20230     20229     20232
     20231     20229     20232     20229     20232     20233     20229     20232     20234
     20229     20232     20235     20233     20232     20234     20233     20232     20235
     20234     20232     20235     20232     20235     20236     20232     20235     20237
     20232     20235     20238     20236     20235     20237     20236     20235     20238
     20237     20235     20238     20235     20238     20239     20235     20238     20240
     20235     20238     20241     20239     20238     20240     20239     20238     20241
     20240     20238     20241     20238     20241     20242     20238     20241     20243
     20238     20241     20244     20242     20241     20243     20242     20241     20244
     20243     20241     20244     20241     20244     20245     20241     20244     20246
     20241     20244     20247     20245     20244     20246     20245     20244     20247
     20246     20244     20247     20244     20247     20248     20244     20247     20249
     20244     20247     20250     20248     20247     20249     20248     20247     20250
     20249     20247     20250     20247     20250     20251     20247     20250     20252
     20247     20250     20253     20251     20250     20252     20251     20250     20253
     20252     20250     20253     20250     20253     20254     20250     20253     20255
     20250     20253     20256     20254     20253     20255     20254     20253     20256
     20255     20253     20256     20253     20256     20257     20253     20256     20258
     20253     20256     20259     20257     20256     20258     20257     20256     20259
     20258     20256     20259     20256     20259     20260     20256     20259     20261
     20256     20259     20262     20260     20259     20261     20260     20259     20262
     20261     20259     20262     20264     20263     20265     20264     20263     20266
     20264     20263     20268     20265     20263     20266     20265     20263     20268
     20266     20263     20268     20263     20266     20267     20263     20268     20269
     20263     20268     20270     20263     20268     20272     20269     20268     20270
     20269     20268     20272     20270     20268     20272     20268     20270     20271
     20268     20272     20273     20268     20272     20274     20268     20272     20279
     20273     20272     20274     20273     20272     20279     20274     20272     20279
     20276     20275     20277     20276     20275     20278     20276     20275     20279
     20277     20275     20278     20277     20275     20279     20278     20275     20279
     20275     20278     20280     20272     20279     20275     20278     20280     20281
     20278     20280     20282     20278     20280     20283     20281     20280     20282
     20281     20280     20283     20282     20280     20283     20280     20283     20284
     20280     20283     20285     20280     20283     20291     20284     20283     20285
     20284     20283     20291     20285     20283     20291     20283     20285     20286
     20285     20286     20287     20285     20286     20288     20287     20286     20288
     20286     20288     20289     20286     20288     20290     20286     20288     20300
     20289     20288     20290     20289     20288     20300     20290     20288     20300
     20283     20291     20292     20283     20291     20293     20283     20291     20294
     20292     20291     20293     20292     20291     20294     20293     20291     20294
     20291     20294     20295     20294     20295     20296     20294     20295     20297
     20296     20295     20297     20295     20297     20298     20295     20297     20299
     20295     20297     20344     20298     20297     20299     20298     20297     20344
     20299     20297     20344     20288     20300     20301     20288     20300     20302
     20288     20300     20303     20301     20300     20302     20301     20300     20303
     20302     20300     20303     20300     20303     20304     20300     20303     20305
     20300     20303     20306     20304     20303     20305     20304     20303     20306
     20305     20303     20306     20303     20306     20307     20303     20306     20308
     20303     20306     20309     20307     20306     20308     20307     20306     20309
     20308     20306     20309     20306     20309     20310     20306     20309     20311
     20306     20309     20312     20310     20309     20311     20310     20309     20312
     20311     20309     20312     20309     20312     20313     20309     20312     20314
     20309     20312     20315     20313     20312     20314     20313     20312     20315
     20314     20312     20315     20312     20315     20316     20312     20315     20317
     20312     20315     20318     20316     20315     20317     20316     20315     20318
     20317     20315     20318     20315     20318     20319     20315     20318     20320
     20315     20318     20323     20319     20318     20320     20319     20318     20323
     20320     20318     20323     20318     20320     20321     20318     20320     20322
     20318     20320     20323     20321     20320     20322     20321     20320     20323
     20322     20320     20323     20318     20323     20320     20318     20323     20324
     20318     20323     20325     20320     20323     20324     20320     20323     20325
     20324     20323     20325     20323     20325     20326     20323     20325     20327
     20323     20325     20328     20326     20325     20327     20326     20325     20328
     20327     20325     20328     20325     20328     20329     20325     20328     20330
     20325     20328     20331     20329     20328     20330     20329     20328     20331
     20330     20328     20331     20328     20331     20332     20328     20331     20333
     20328     20331     20334     20332     20331     20333     20332     20331     20334
     20333     20331     20334     20331     20334     20335     20331     20334     20336
     20331     20334     20337     20335     20334     20336     20335     20334     20337
     20336     20334     20337     20334     20337     20338     20334     20337     20339
     20334     20337     20340     20338     20337     20339     20338     20337     20340
     20339     20337     20340     20337     20340     20341     20337     20340     20342
     20337     20340     20343     20341     20340     20342     20341     20340     20343
     20342     20340     20343     20297     20344     20345     20297     20344     20346
     20297     20344     20347     20345     20344     20346     20345     20344     20347
     20346     20344     20347     20344     20347     20348     20344     20347     20349
     20344     20347     20350     20348     20347     20349     20348     20347     20350
     20349     20347     20350     20347     20350     20351     20347     20350     20352
     20347     20350     20353     20351     20350     20352     20351     20350     20353
     20352     20350     20353     20350     20353     20354     20350     20353     20355
     20350     20353     20356     20354     20353     20355     20354     20353     20356
     20355     20353     20356     20353     20356     20357     20353     20356     20358
     20353     20356     20359     20357     20356     20358     20357     20356     20359
     20358     20356     20359     20356     20359     20360     20356     20359     20361
     20356     20359     20362     20360     20359     20361     20360     20359     20362
     20361     20359     20362     20359     20362     20363     20359     20362     20364
     20359     20362     20365     20363     20362     20364     20363     20362     20365
     20364     20362     20365     20362     20365     20366     20362     20365     20367
     20362     20365     20368     20366     20365     20367     20366     20365     20368
     20367     20365     20368     20365     20368     20369     20365     20368     20370
     20365     20368     20371     20369     20368     20370     20369     20368     20371
     20370     20368     20371     20368     20371     20372     20368     20371     20373
     20368     20371     20374     20372     20371     20373     20372     20371     20374
     20373     20371     20374     20371     20374     20375     20371     20374     20376
     20371     20374     20377     20375     20374     20376     20375     20374     20377
     20376     20374     20377     20374     20377     20378     20374     20377     20379
     20374     20377     20380     20378     20377     20379     20378     20377     20380
     20379     20377     20380     20377     20380     20381     20377     20380     20382
     20377     20380     20383     20381     20380     20382     20381     20380     20383
     20382     20380     20383     20380     20383     20384     20380     20383     20385
     20380     20383     20386     20384     20383     20385     20384     20383     20386
     20385     20383     20386     20388     20387     20389     20388     20387     20390
     20388     20387     20391     20389     20387     20390     20389     20387     20391
     20390     20387     20391     20387     20391     20392     20387     20391     20393
     20387     20391     20394     20392     20391     20393     20392     20391     20394
     20393     20391     20394     20391     20394     20395     20391     20394     20396
     20391     20394     20401     20395     20394     20396     20395     20394     20401
     20396     20394     20401     20398     20397     20399     20398     20397     20400
     20398     20397     20401     20399     20397     20400     20399     20397     20401
     20400     20397     20401     20397     20400     20402     20394     20401     20397
     20400     20402     20403     20400     20402     20404     20400     20402     20405
     20403     20402     20404     20403     20402     20405     20404     20402     20405
     20402     20405     20406     20402     20405     20407     20402     20405     20413
     20406     20405     20407     20406     20405     20413     20407     20405     20413
     20405     20407     20408     20407     20408     20409     20407     20408     20410
     20409     20408     20410     20408     20410     20411     20408     20410     20412
     20408     20410     20422     20411     20410     20412     20411     20410     20422
     20412     20410     20422     20405     20413     20414     20405     20413     20415
     20405     20413     20416     20414     20413     20415     20414     20413     20416
     20415     20413     20416     20413     20416     20417     20416     20417     20418
     20416     20417     20419     20418     20417     20419     20417     20419     20420
     20417     20419     20421     20417     20419     20463     20420     20419     20421
     20420     20419     20463     20421     20419     20463     20410     20422     20423
     20410     20422     20424     20410     20422     20425     20423     20422     20424
     20423     20422     20425     20424     20422     20425     20422     20425     20426
     20422     20425     20427     20422     20425     20428     20426     20425     20427
     20426     20425     20428     20427     20425     20428     20425     20428     20429
     20425     20428     20430     20425     20428     20431     20429     20428     20430
     20429     20428     20431     20430     20428     20431     20428     20431     20432
     20428     20431     20433     20428     20431     20434     20432     20431     20433
     20432     20431     20434     20433     20431     20434     20431     20434     20435
     20431     20434     20436     20431     20434     20437     20435     20434     20436
     20435     20434     20437     20436     20434     20437     20434     20437     20438
     20434     20437     20439     20434     20437     20440     20438     20437     20439
     20438     20437     20440     20439     20437     20440     20437     20440     20441
     20437     20440     20442     20441     20440     20442     20440     20442     20443
     20440     20442     20444     20443     20442     20444     20442     20444     20445
     20442     20444     20446     20442     20444     20447     20445     20444     20446
     20445     20444     20447     20446     20444     20447     20444     20447     20448
     20444     20447     20449     20444     20447     20450     20448     20447     20449
     20448     20447     20450     20449     20447     20450     20447     20450     20451
     20447     20450     20452     20447     20450     20453     20451     20450     20452
     20451     20450     20453     20452     20450     20453     20450     20453     20454
     20450     20453     20455     20450     20453     20456     20454     20453     20455
     20454     20453     20456     20455     20453     20456     20453     20456     20457
     20453     20456     20458     20453     20456     20459     20457     20456     20458
     20457     20456     20459     20458     20456     20459     20456     20459     20460
     20456     20459     20461     20456     20459     20462     20460     20459     20461
     20460     20459     20462     20461     20459     20462     20419     20463     20464
     20419     20463     20465     20419     20463     20466     20464     20463     20465
     20464     20463     20466     20465     20463     20466     20463     20466     20467
     20463     20466     20468     20463     20466     20469     20467     20466     20468
     20467     20466     20469     20468     20466     20469     20466     20469     20470
     20466     20469     20471     20466     20469     20472     20470     20469     20471
     20470     20469     20472     20471     20469     20472     20469     20472     20473
     20469     20472     20474     20469     20472     20475     20473     20472     20474
     20473     20472     20475     20474     20472     20475     20472     20475     20476
     20472     20475     20477     20472     20475     20478     20476     20475     20477
     20476     20475     20478     20477     20475     20478     20475     20478     20479
     20475     20478     20480     20475     20478     20481     20479     20478     20480
     20479     20478     20481     20480     20478     20481     20478     20481     20482
     20478     20481     20483     20482     20481     20483     20481     20483     20484
     20481     20483     20485     20484     20483     20485     20483     20485     20486
     20483     20485     20487     20483     20485     20488     20486     20485     20487
     20486     20485     20488     20487     20485     20488     20485     20488     20489
     20485     20488     20490     20485     20488     20491     20489     20488     20490
     20489     20488     20491     20490     20488     20491     20488     20491     20492
     20488     20491     20493     20488     20491     20494     20492     20491     20493
     20492     20491     20494     20493     20491     20494     20491     20494     20495
     20491     20494     20496     20491     20494     20497     20495     20494     20496
     20495     20494     20497     20496     20494     20497     20494     20497     20498
     20494     20497     20499     20494     20497     20500     20498     20497     20499
     20498     20497     20500     20499     20497     20500     20497     20500     20501
     20497     20500     20502     20497     20500     20503     20501     20500     20502
     20501     20500     20503     20502     20500     20503     20500     20503     20504
     20500     20503     20505     20500     20503     20506     20504     20503     20505
     20504     20503     20506     20505     20503     20506     20503     20506     20507
     20503     20506     20508     20503     20506     20509     20507     20506     20508
     20507     20506     20509     20508     20506     20509     20511     20510     20512
     20511     20510     20513     20511     20510     20514     20512     20510     20513
     20512     20510     20514     20513     20510     20514     20510     20514     20515
     20510     20514     20516     20510     20514     20517     20515     20514     20516
     20515     20514     20517     20516     20514     20517     20514     20517     20518
     20514     20517     20519     20514     20517     20524     20518     20517     20519
     20518     20517     20524     20519     20517     20524     20521     20520     20522
     20521     20520     20523     20521     20520     20524     20522     20520     20523
     20522     20520     20524     20523     20520     20524     20520     20523     20525
     20517     20524     20520     20523     20525     20526     20523     20525     20527
     20523     20525     20528     20526     20525     20527     20526     20525     20528
     20527     20525     20528     20525     20528     20529     20525     20528     20530
     20525     20528     20536     20529     20528     20530     20529     20528     20536
     20530     20528     20536     20528     20530     20531     20530     20531     20532
     20530     20531     20533     20532     20531     20533     20531     20533     20534
     20531     20533     20535     20531     20533     20545     20534     20533     20535
     20534     20533     20545     20535     20533     20545     20528     20536     20537
     20528     20536     20538     20528     20536     20539     20537     20536     20538
     20537     20536     20539     20538     20536     20539     20536     20539     20540
     20539     20540     20541     20539     20540     20542     20541     20540     20542
     20540     20542     20543     20540     20542     20544     20540     20542     20589
     20543     20542     20544     20543     20542     20589     20544     20542     20589
     20533     20545     20546     20533     20545     20547     20533     20545     20548
     20546     20545     20547     20546     20545     20548     20547     20545     20548
     20545     20548     20549     20545     20548     20550     20545     20548     20551
     20549     20548     20550     20549     20548     20551     20550     20548     20551
     20548     20551     20552     20548     20551     20553     20548     20551     20554
     20552     20551     20553     20552     20551     20554     20553     20551     20554
     20551     20554     20555     20551     20554     20556     20551     20554     20557
     20555     20554     20556     20555     20554     20557     20556     20554     20557
     20554     20557     20558     20554     20557     20559     20554     20557     20560
     20558     20557     20559     20558     20557     20560     20559     20557     20560
     20557     20560     20561     20557     20560     20562     20557     20560     20563
     20561     20560     20562     20561     20560     20563     20562     20560     20563
     20560     20563     20564     20560     20563     20565     20560     20563     20568
     20564     20563     20565     20564     20563     20568     20565     20563     20568
     20563     20565     20566     20563     20565     20567     20563     20565     20568
     20566     20565     20567     20566     20565     20568     20567     20565     20568
     20563     20568     20565     20563     20568     20569     20563     20568     20570
     20565     20568     20569     20565     20568     20570     20569     20568     20570
     20568     20570     20571     20568     20570     20572     20568     20570     20573
     20571     20570     20572     20571     20570     20573     20572     20570     20573
     20570     20573     20574     20570     20573     20575     20570     20573     20576
     20574     20573     20575     20574     20573     20576     20575     20573     20576
     20573     20576     20577     20573     20576     20578     20573     20576     20579
     20577     20576     20578     20577     20576     20579     20578     20576     20579
     20576     20579     20580     20576     20579     20581     20576     20579     20582
     20580     20579     20581     20580     20579     20582     20581     20579     20582
     20579     20582     20583     20579     20582     20584     20579     20582     20585
     20583     20582     20584     20583     20582     20585     20584     20582     20585
     20582     20585     20586     20582     20585     20587     20582     20585     20588
     20586     20585     20587     20586     20585     20588     20587     20585     20588
     20542     20589     20590     20542     20589     20591     20542     20589     20592
     20590     20589     20591     20590     20589     20592     20591     20589     20592
     20589     20592     20593     20589     20592     20594     20589     20592     20595
     20593     20592     20594     20593     20592     20595     20594     20592     20595
     20592     20595     20596     20592     20595     20597     20592     20595     20598
     20596     20595     20597     20596     20595     20598     20597     20595     20598
     20595     20598     20599     20595     20598     20600     20595     20598     20601
     20599     20598     20600     20599     20598     20601     20600     20598     20601
     20598     20601     20602     20598     20601     20603     20598     20601     20604
     20602     20601     20603     20602     20601     20604     20603     20601     20604
     20601     20604     20605     20601     20604     20606     20601     20604     20607
     20605     20604     20606     20605     20604     20607     20606     20604     20607
     20604     20607     20608     20604     20607     20609     20604     20607     20610
     20608     20607     20609     20608     20607     20610     20609     20607     20610
     20607     20610     20611     20607     20610     20612     20607     20610     20613
     20611     20610     20612     20611     20610     20613     20612     20610     20613
     20610     20613     20614     20610     20613     20615     20610     20613     20616
     20614     20613     20615     20614     20613     20616     20615     20613     20616
     20613     20616     20617     20613     20616     20618     20613     20616     20619
     20617     20616     20618     20617     20616     20619     20618     20616     20619
     20616     20619     20620     20616     20619     20621     20616     20619     20622
     20620     20619     20621     20620     20619     20622     20621     20619     20622
     20619     20622     20623     20619     20622     20624     20619     20622     20625
     20623     20622     20624     20623     20622     20625     20624     20622     20625
     20622     20625     20626     20622     20625     20627     20622     20625     20628
     20626     20625     20627     20626     20625     20628     20627     20625     20628
     20625     20628     20629     20625     20628     20630     20625     20628     20631
     20629     20628     20630     20629     20628     20631     20630     20628     20631
     20633     20632     20634     20633     20632     20635     20633     20632     20636
     20634     20632     20635     20634     20632     20636     20635     20632     20636
     20632     20636     20637     20632     20636     20638     20632     20636     20639
     20637     20636     20638     20637     20636     20639     20638     20636     20639
     20636     20639     20640     20636     20639     20641     20636     20639     20646
     20640     20639     20641     20640     20639     20646     20641     20639     20646
     20643     20642     20644     20643     20642     20645     20643     20642     20646
     20644     20642     20645     20644     20642     20646     20645     20642     20646
     20642     20645     20647     20639     20646     20642     20645     20647     20648
     20645     20647     20649     20645     20647     20650     20648     20647     20649
     20648     20647     20650     20649     20647     20650     20647     20650     20651
     20647     20650     20652     20647     20650     20658     20651     20650     20652
     20651     20650     20658     20652     20650     20658     20650     20652     20653
     20652     20653     20654     20652     20653     20655     20654     20653     20655
     20653     20655     20656     20653     20655     20657     20653     20655     20667
     20656     20655     20657     20656     20655     20667     20657     20655     20667
     20650     20658     20659     20650     20658     20660     20650     20658     20661
     20659     20658     20660     20659     20658     20661     20660     20658     20661
     20658     20661     20662     20661     20662     20663     20661     20662     20664
     20663     20662     20664     20662     20664     20665     20662     20664     20666
     20662     20664     20711     20665     20664     20666     20665     20664     20711
     20666     20664     20711     20655     20667     20668     20655     20667     20669
     20655     20667     20670     20668     20667     20669     20668     20667     20670
     20669     20667     20670     20667     20670     20671     20667     20670     20672
     20667     20670     20673     20671     20670     20672     20671     20670     20673
     20672     20670     20673     20670     20673     20674     20670     20673     20675
     20670     20673     20676     20674     20673     20675     20674     20673     20676
     20675     20673     20676     20673     20676     20677     20673     20676     20678
     20673     20676     20679     20677     20676     20678     20677     20676     20679
     20678     20676     20679     20676     20679     20680     20676     20679     20681
     20676     20679     20682     20680     20679     20681     20680     20679     20682
     20681     20679     20682     20679     20682     20683     20679     20682     20684
     20679     20682     20685     20683     20682     20684     20683     20682     20685
     20684     20682     20685     20682     20685     20686     20682     20685     20687
     20682     20685     20690     20686     20685     20687     20686     20685     20690
     20687     20685     20690     20685     20687     20688     20685     20687     20689
     20685     20687     20690     20688     20687     20689     20688     20687     20690
     20689     20687     20690     20685     20690     20687     20685     20690     20691
     20685     20690     20692     20687     20690     20691     20687     20690     20692
     20691     20690     20692     20690     20692     20693     20690     20692     20694
     20690     20692     20695     20693     20692     20694     20693     20692     20695
     20694     20692     20695     20692     20695     20696     20692     20695     20697
     20692     20695     20698     20696     20695     20697     20696     20695     20698
     20697     20695     20698     20695     20698     20699     20695     20698     20700
     20695     20698     20701     20699     20698     20700     20699     20698     20701
     20700     20698     20701     20698     20701     20702     20698     20701     20703
     20698     20701     20704     20702     20701     20703     20702     20701     20704
     20703     20701     20704     20701     20704     20705     20701     20704     20706
     20701     20704     20707     20705     20704     20706     20705     20704     20707
     20706     20704     20707     20704     20707     20708     20704     20707     20709
     20704     20707     20710     20708     20707     20709     20708     20707     20710
     20709     20707     20710     20664     20711     20712     20664     20711     20713
     20664     20711     20714     20712     20711     20713     20712     20711     20714
     20713     20711     20714     20711     20714     20715     20711     20714     20716
     20711     20714     20717     20715     20714     20716     20715     20714     20717
     20716     20714     20717     20714     20717     20718     20714     20717     20719
     20714     20717     20720     20718     20717     20719     20718     20717     20720
     20719     20717     20720     20717     20720     20721     20717     20720     20722
     20717     20720     20723     20721     20720     20722     20721     20720     20723
     20722     20720     20723     20720     20723     20724     20720     20723     20725
     20720     20723     20726     20724     20723     20725     20724     20723     20726
     20725     20723     20726     20723     20726     20727     20723     20726     20728
     20723     20726     20729     20727     20726     20728     20727     20726     20729
     20728     20726     20729     20726     20729     20730     20726     20729     20731
     20726     20729     20732     20730     20729     20731     20730     20729     20732
     20731     20729     20732     20729     20732     20733     20729     20732     20734
     20729     20732     20735     20733     20732     20734     20733     20732     20735
     20734     20732     20735     20732     20735     20736     20732     20735     20737
     20732     20735     20738     20736     20735     20737     20736     20735     20738
     20737     20735     20738     20735     20738     20739     20735     20738     20740
     20735     20738     20741     20739     20738     20740     20739     20738     20741
     20740     20738     20741     20738     20741     20742     20738     20741     20743
     20738     20741     20744     20742     20741     20743     20742     20741     20744
     20743     20741     20744     20741     20744     20745     20741     20744     20746
     20741     20744     20747     20745     20744     20746     20745     20744     20747
     20746     20744     20747     20744     20747     20748     20744     20747     20749
     20744     20747     20750     20748     20747     20749     20748     20747     20750
     20749     20747     20750     20747     20750     20751     20747     20750     20752
     20747     20750     20753     20751     20750     20752     20751     20750     20753
     20752     20750     20753     20755     20754     20756     20755     20754     20757
     20755     20754     20758     20756     20754     20757     20756     20754     20758
     20757     20754     20758     20754     20758     20759     20754     20758     20760
     20754     20758     20761     20759     20758     20760     20759     20758     20761
     20760     20758     20761     20758     20761     20762     20758     20761     20763
     20758     20761     20768     20762     20761     20763     20762     20761     20768
     20763     20761     20768     20765     20764     20766     20765     20764     20767
     20765     20764     20768     20766     20764     20767     20766     20764     20768
     20767     20764     20768     20764     20767     20769     20761     20768     20764
     20767     20769     20770     20767     20769     20771     20767     20769     20772
     20770     20769     20771     20770     20769     20772     20771     20769     20772
     20769     20772     20773     20769     20772     20774     20769     20772     20780
     20773     20772     20774     20773     20772     20780     20774     20772     20780
     20772     20774     20775     20774     20775     20776     20774     20775     20777
     20776     20775     20777     20775     20777     20778     20775     20777     20779
     20775     20777     20789     20778     20777     20779     20778     20777     20789
     20779     20777     20789     20772     20780     20781     20772     20780     20782
     20772     20780     20783     20781     20780     20782     20781     20780     20783
     20782     20780     20783     20780     20783     20784     20783     20784     20785
     20783     20784     20786     20785     20784     20786     20784     20786     20787
     20784     20786     20788     20784     20786     20833     20787     20786     20788
     20787     20786     20833     20788     20786     20833     20777     20789     20790
     20777     20789     20791     20777     20789     20792     20790     20789     20791
     20790     20789     20792     20791     20789     20792     20789     20792     20793
     20789     20792     20794     20789     20792     20795     20793     20792     20794
     20793     20792     20795     20794     20792     20795     20792     20795     20796
     20792     20795     20797     20792     20795     20798     20796     20795     20797
     20796     20795     20798     20797     20795     20798     20795     20798     20799
     20795     20798     20800     20795     20798     20801     20799     20798     20800
     20799     20798     20801     20800     20798     20801     20798     20801     20802
     20798     20801     20803     20798     20801     20804     20802     20801     20803
     20802     20801     20804     20803     20801     20804     20801     20804     20805
     20801     20804     20806     20801     20804     20807     20805     20804     20806
     20805     20804     20807     20806     20804     20807     20804     20807     20808
     20804     20807     20809     20804     20807     20812     20808     20807     20809
     20808     20807     20812     20809     20807     20812     20807     20809     20810
     20807     20809     20811     20807     20809     20812     20810     20809     20811
     20810     20809     20812     20811     20809     20812     20807     20812     20809
     20807     20812     20813     20807     20812     20814     20809     20812     20813
     20809     20812     20814     20813     20812     20814     20812     20814     20815
     20812     20814     20816     20812     20814     20817     20815     20814     20816
     20815     20814     20817     20816     20814     20817     20814     20817     20818
     20814     20817     20819     20814     20817     20820     20818     20817     20819
     20818     20817     20820     20819     20817     20820     20817     20820     20821
     20817     20820     20822     20817     20820     20823     20821     20820     20822
     20821     20820     20823     20822     20820     20823     20820     20823     20824
     20820     20823     20825     20820     20823     20826     20824     20823     20825
     20824     20823     20826     20825     20823     20826     20823     20826     20827
     20823     20826     20828     20823     20826     20829     20827     20826     20828
     20827     20826     20829     20828     20826     20829     20826     20829     20830
     20826     20829     20831     20826     20829     20832     20830     20829     20831
     20830     20829     20832     20831     20829     20832     20786     20833     20834
     20786     20833     20835     20786     20833     20836     20834     20833     20835
     20834     20833     20836     20835     20833     20836     20833     20836     20837
     20833     20836     20838     20833     20836     20839     20837     20836     20838
     20837     20836     20839     20838     20836     20839     20836     20839     20840
     20836     20839     20841     20836     20839     20842     20840     20839     20841
     20840     20839     20842     20841     20839     20842     20839     20842     20843
     20839     20842     20844     20839     20842     20845     20843     20842     20844
     20843     20842     20845     20844     20842     20845     20842     20845     20846
     20842     20845     20847     20842     20845     20848     20846     20845     20847
     20846     20845     20848     20847     20845     20848     20845     20848     20849
     20845     20848     20850     20845     20848     20851     20849     20848     20850
     20849     20848     20851     20850     20848     20851     20848     20851     20852
     20848     20851     20853     20848     20851     20854     20852     20851     20853
     20852     20851     20854     20853     20851     20854     20851     20854     20855
     20851     20854     20856     20851     20854     20857     20855     20854     20856
     20855     20854     20857     20856     20854     20857     20854     20857     20858
     20854     20857     20859     20854     20857     20860     20858     20857     20859
     20858     20857     20860     20859     20857     20860     20857     20860     20861
     20857     20860     20862     20857     20860     20863     20861     20860     20862
     20861     20860     20863     20862     20860     20863     20860     20863     20864
     20860     20863     20865     20860     20863     20866     20864     20863     20865
     20864     20863     20866     20865     20863     20866     20863     20866     20867
     20863     20866     20868     20863     20866     20869     20867     20866     20868
     20867     20866     20869     20868     20866     20869     20866     20869     20870
     20866     20869     20871     20866     20869     20872     20870     20869     20871
     20870     20869     20872     20871     20869     20872     20869     20872     20873
     20869     20872     20874     20869     20872     20875     20873     20872     20874
     20873     20872     20875     20874     20872     20875     20877     20876     20878
     20877     20876     20879     20877     20876     20880     20878     20876     20879
     20878     20876     20880     20879     20876     20880     20876     20880     20881
     20876     20880     20882     20876     20880     20883     20881     20880     20882
     20881     20880     20883     20882     20880     20883     20880     20883     20884
     20880     20883     20885     20880     20883     20890     20884     20883     20885
     20884     20883     20890     20885     20883     20890     20887     20886     20888
     20887     20886     20889     20887     20886     20890     20888     20886     20889
     20888     20886     20890     20889     20886     20890     20886     20889     20891
     20883     20890     20886     20889     20891     20892     20889     20891     20893
     20889     20891     20894     20892     20891     20893     20892     20891     20894
     20893     20891     20894     20891     20894     20895     20891     20894     20896
     20891     20894     20902     20895     20894     20896     20895     20894     20902
     20896     20894     20902     20894     20896     20897     20896     20897     20898
     20896     20897     20899     20898     20897     20899     20897     20899     20900
     20897     20899     20901     20897     20899     20911     20900     20899     20901
     20900     20899     20911     20901     20899     20911     20894     20902     20903
     20894     20902     20904     20894     20902     20905     20903     20902     20904
     20903     20902     20905     20904     20902     20905     20902     20905     20906
     20905     20906     20907     20905     20906     20908     20907     20906     20908
     20906     20908     20909     20906     20908     20910     20906     20908     20958
     20909     20908     20910     20909     20908     20958     20910     20908     20958
     20899     20911     20912     20899     20911     20913     20899     20911     20914
     20912     20911     20913     20912     20911     20914     20913     20911     20914
     20911     20914     20915     20911     20914     20916     20911     20914     20917
     20915     20914     20916     20915     20914     20917     20916     20914     20917
     20914     20917     20918     20914     20917     20919     20914     20917     20920
     20918     20917     20919     20918     20917     20920     20919     20917     20920
     20917     20920     20921     20917     20920     20922     20917     20920     20923
     20921     20920     20922     20921     20920     20923     20922     20920     20923
     20920     20923     20924     20920     20923     20925     20920     20923     20926
     20924     20923     20925     20924     20923     20926     20925     20923     20926
     20923     20926     20927     20923     20926     20928     20923     20926     20929
     20927     20926     20928     20927     20926     20929     20928     20926     20929
     20926     20929     20930     20926     20929     20931     20930     20929     20931
     20929     20931     20932     20929     20931     20933     20932     20931     20933
     20931     20933     20934     20931     20933     20935     20931     20933     20936
     20934     20933     20935     20934     20933     20936     20935     20933     20936
     20933     20936     20937     20933     20936     20938     20933     20936     20939
     20937     20936     20938     20937     20936     20939     20938     20936     20939
     20936     20939     20940     20936     20939     20941     20936     20939     20942
     20940     20939     20941     20940     20939     20942     20941     20939     20942
     20939     20942     20943     20939     20942     20944     20939     20942     20945
     20943     20942     20944     20943     20942     20945     20944     20942     20945
     20942     20945     20946     20942     20945     20947     20942     20945     20948
     20946     20945     20947     20946     20945     20948     20947     20945     20948
     20945     20948     20949     20945     20948     20950     20945     20948     20951
     20949     20948     20950     20949     20948     20951     20950     20948     20951
     20948     20951     20952     20948     20951     20953     20948     20951     20954
     20952     20951     20953     20952     20951     20954     20953     20951     20954
     20951     20954     20955     20951     20954     20956     20951     20954     20957
     20955     20954     20956     20955     20954     20957     20956     20954     20957
     20908     20958     20959     20908     20958     20960     20908     20958     20961
     20959     20958     20960     20959     20958     20961     20960     20958     20961
     20958     20961     20962     20958     20961     20963     20958     20961     20964
     20962     20961     20963     20962     20961     20964     20963     20961     20964
     20961     20964     20965     20961     20964     20966     20961     20964     20967
     20965     20964     20966     20965     20964     20967     20966     20964     20967
     20964     20967     20968     20964     20967     20969     20964     20967     20970
     20968     20967     20969     20968     20967     20970     20969     20967     20970
     20967     20970     20971     20967     20970     20972     20967     20970     20973
     20971     20970     20972     20971     20970     20973     20972     20970     20973
     20970     20973     20974     20970     20973     20975     20970     20973     20976
     20974     20973     20975     20974     20973     20976     20975     20973     20976
     20973     20976     20977     20973     20976     20978     20973     20976     20979
     20977     20976     20978     20977     20976     20979     20978     20976     20979
     20976     20979     20980     20976     20979     20981     20976     20979     20982
     20980     20979     20981     20980     20979     20982     20981     20979     20982
     20979     20982     20983     20979     20982     20984     20979     20982     20985
     20983     20982     20984     20983     20982     20985     20984     20982     20985
     20982     20985     20986     20982     20985     20987     20982     20985     20988
     20986     20985     20987     20986     20985     20988     20987     20985     20988
     20985     20988     20989     20985     20988     20990     20985     20988     20991
     20989     20988     20990     20989     20988     20991     20990     20988     20991
     20988     20991     20992     20988     20991     20993     20988     20991     20994
     20992     20991     20993     20992     20991     20994     20993     20991     20994
     20991     20994     20995     20991     20994     20996     20991     20994     20997
     20995     20994     20996     20995     20994     20997     20996     20994     20997
     20994     20997     20998     20994     20997     20999     20994     20997     21000
     20998     20997     20999     20998     20997     21000     20999     20997     21000
     21002     21001     21003     21002     21001     21004     21002     21001     21005
     21003     21001     21004     21003     21001     21005     21004     21001     21005
     21001     21005     21006     21001     21005     21007     21001     21005     21008
     21006     21005     21007     21006     21005     21008     21007     21005     21008
     21005     21008     21009     21005     21008     21010     21005     21008     21015
     21009     21008     21010     21009     21008     21015     21010     21008     21015
     21012     21011     21013     21012     21011     21014     21012     21011     21015
     21013     21011     21014     21013     21011     21015     21014     21011     21015
     21011     21014     21016     21008     21015     21011     21014     21016     21017
     21014     21016     21018     21014     21016     21019     21017     21016     21018
     21017     21016     21019     21018     21016     21019     21016     21019     21020
     21016     21019     21021     21016     21019     21027     21020     21019     21021
     21020     21019     21027     21021     21019     21027     21019     21021     21022
     21021     21022     21023     21021     21022     21024     21023     21022     21024
     21022     21024     21025     21022     21024     21026     21022     21024     21036
     21025     21024     21026     21025     21024     21036     21026     21024     21036
     21019     21027     21028     21019     21027     21029     21019     21027     21030
     21028     21027     21029     21028     21027     21030     21029     21027     21030
     21027     21030     21031     21030     21031     21032     21030     21031     21033
     21032     21031     21033     21031     21033     21034     21031     21033     21035
     21031     21033     21083     21034     21033     21035     21034     21033     21083
     21035     21033     21083     21024     21036     21037     21024     21036     21038
     21024     21036     21039     21037     21036     21038     21037     21036     21039
     21038     21036     21039     21036     21039     21040     21036     21039     21041
     21036     21039     21042     21040     21039     21041     21040     21039     21042
     21041     21039     21042     21039     21042     21043     21039     21042     21044
     21039     21042     21045     21043     21042     21044     21043     21042     21045
     21044     21042     21045     21042     21045     21046     21042     21045     21047
     21042     21045     21048     21046     21045     21047     21046     21045     21048
     21047     21045     21048     21045     21048     21049     21045     21048     21050
     21045     21048     21051     21049     21048     21050     21049     21048     21051
     21050     21048     21051     21048     21051     21052     21048     21051     21053
     21048     21051     21054     21052     21051     21053     21052     21051     21054
     21053     21051     21054     21051     21054     21055     21051     21054     21056
     21055     21054     21056     21054     21056     21057     21054     21056     21058
     21057     21056     21058     21056     21058     21059     21056     21058     21060
     21056     21058     21061     21059     21058     21060     21059     21058     21061
     21060     21058     21061     21058     21061     21062     21058     21061     21063
     21058     21061     21064     21062     21061     21063     21062     21061     21064
     21063     21061     21064     21061     21064     21065     21061     21064     21066
     21061     21064     21067     21065     21064     21066     21065     21064     21067
     21066     21064     21067     21064     21067     21068     21064     21067     21069
     21064     21067     21070     21068     21067     21069     21068     21067     21070
     21069     21067     21070     21067     21070     21071     21067     21070     21072
     21067     21070     21073     21071     21070     21072     21071     21070     21073
     21072     21070     21073     21070     21073     21074     21070     21073     21075
     21070     21073     21076     21074     21073     21075     21074     21073     21076
     21075     21073     21076     21073     21076     21077     21073     21076     21078
     21073     21076     21079     21077     21076     21078     21077     21076     21079
     21078     21076     21079     21076     21079     21080     21076     21079     21081
     21076     21079     21082     21080     21079     21081     21080     21079     21082
     21081     21079     21082     21033     21083     21084     21033     21083     21085
     21033     21083     21086     21084     21083     21085     21084     21083     21086
     21085     21083     21086     21083     21086     21087     21083     21086     21088
     21083     21086     21089     21087     21086     21088     21087     21086     21089
     21088     21086     21089     21086     21089     21090     21086     21089     21091
     21086     21089     21092     21090     21089     21091     21090     21089     21092
     21091     21089     21092     21089     21092     21093     21089     21092     21094
     21089     21092     21095     21093     21092     21094     21093     21092     21095
     21094     21092     21095     21092     21095     21096     21092     21095     21097
     21092     21095     21098     21096     21095     21097     21096     21095     21098
     21097     21095     21098     21095     21098     21099     21095     21098     21100
     21095     21098     21101     21099     21098     21100     21099     21098     21101
     21100     21098     21101     21098     21101     21102     21098     21101     21103
     21098     21101     21104     21102     21101     21103     21102     21101     21104
     21103     21101     21104     21101     21104     21105     21101     21104     21106
     21101     21104     21107     21105     21104     21106     21105     21104     21107
     21106     21104     21107     21104     21107     21108     21104     21107     21109
     21104     21107     21110     21108     21107     21109     21108     21107     21110
     21109     21107     21110     21107     21110     21111     21107     21110     21112
     21107     21110     21113     21111     21110     21112     21111     21110     21113
     21112     21110     21113     21110     21113     21114     21110     21113     21115
     21110     21113     21116     21114     21113     21115     21114     21113     21116
     21115     21113     21116     21113     21116     21117     21113     21116     21118
     21113     21116     21119     21117     21116     21118     21117     21116     21119
     21118     21116     21119     21116     21119     21120     21116     21119     21121
     21116     21119     21122     21120     21119     21121     21120     21119     21122
     21121     21119     21122     21119     21122     21123     21119     21122     21124
     21119     21122     21125     21123     21122     21124     21123     21122     21125
     21124     21122     21125     21127     21126     21128     21127     21126     21129
     21127     21126     21131     21128     21126     21129     21128     21126     21131
     21129     21126     21131     21126     21129     21130     21126     21131     21132
     21126     21131     21133     21126     21131     21135     21132     21131     21133
     21132     21131     21135     21133     21131     21135     21131     21133     21134
     21131     21135     21136     21131     21135     21137     21131     21135     21142
     21136     21135     21137     21136     21135     21142     21137     21135     21142
     21139     21138     21140     21139     21138     21141     21139     21138     21142
     21140     21138     21141     21140     21138     21142     21141     21138     21142
     21138     21141     21143     21135     21142     21138     21141     21143     21144
     21141     21143     21145     21141     21143     21146     21144     21143     21145
     21144     21143     21146     21145     21143     21146     21143     21146     21147
     21143     21146     21148     21143     21146     21154     21147     21146     21148
     21147     21146     21154     21148     21146     21154     21146     21148     21149
     21148     21149     21150     21148     21149     21151     21150     21149     21151
     21149     21151     21152     21149     21151     21153     21149     21151     21163
     21152     21151     21153     21152     21151     21163     21153     21151     21163
     21146     21154     21155     21146     21154     21156     21146     21154     21157
     21155     21154     21156     21155     21154     21157     21156     21154     21157
     21154     21157     21158     21157     21158     21159     21157     21158     21160
     21159     21158     21160     21158     21160     21161     21158     21160     21162
     21158     21160     21204     21161     21160     21162     21161     21160     21204
     21162     21160     21204     21151     21163     21164     21151     21163     21165
     21151     21163     21166     21164     21163     21165     21164     21163     21166
     21165     21163     21166     21163     21166     21167     21163     21166     21168
     21163     21166     21169     21167     21166     21168     21167     21166     21169
     21168     21166     21169     21166     21169     21170     21166     21169     21171
     21166     21169     21172     21170     21169     21171     21170     21169     21172
     21171     21169     21172     21169     21172     21173     21169     21172     21174
     21169     21172     21175     21173     21172     21174     21173     21172     21175
     21174     21172     21175     21172     21175     21176     21172     21175     21177
     21172     21175     21178     21176     21175     21177     21176     21175     21178
     21177     21175     21178     21175     21178     21179     21175     21178     21180
     21175     21178     21181     21179     21178     21180     21179     21178     21181
     21180     21178     21181     21178     21181     21182     21178     21181     21183
     21182     21181     21183     21181     21183     21184     21181     21183     21185
     21184     21183     21185     21183     21185     21186     21183     21185     21187
     21183     21185     21188     21186     21185     21187     21186     21185     21188
     21187     21185     21188     21185     21188     21189     21185     21188     21190
     21185     21188     21191     21189     21188     21190     21189     21188     21191
     21190     21188     21191     21188     21191     21192     21188     21191     21193
     21188     21191     21194     21192     21191     21193     21192     21191     21194
     21193     21191     21194     21191     21194     21195     21191     21194     21196
     21191     21194     21197     21195     21194     21196     21195     21194     21197
     21196     21194     21197     21194     21197     21198     21194     21197     21199
     21194     21197     21200     21198     21197     21199     21198     21197     21200
     21199     21197     21200     21197     21200     21201     21197     21200     21202
     21197     21200     21203     21201     21200     21202     21201     21200     21203
     21202     21200     21203     21160     21204     21205     21160     21204     21206
     21160     21204     21207     21205     21204     21206     21205     21204     21207
     21206     21204     21207     21204     21207     21208     21204     21207     21209
     21204     21207     21210     21208     21207     21209     21208     21207     21210
     21209     21207     21210     21207     21210     21211     21207     21210     21212
     21207     21210     21213     21211     21210     21212     21211     21210     21213
     21212     21210     21213     21210     21213     21214     21210     21213     21215
     21210     21213     21216     21214     21213     21215     21214     21213     21216
     21215     21213     21216     21213     21216     21217     21213     21216     21218
     21213     21216     21219     21217     21216     21218     21217     21216     21219
     21218     21216     21219     21216     21219     21220     21216     21219     21221
     21216     21219     21222     21220     21219     21221     21220     21219     21222
     21221     21219     21222     21219     21222     21223     21219     21222     21224
     21219     21222     21225     21223     21222     21224     21223     21222     21225
     21224     21222     21225     21222     21225     21226     21222     21225     21227
     21222     21225     21228     21226     21225     21227     21226     21225     21228
     21227     21225     21228     21225     21228     21229     21225     21228     21230
     21225     21228     21231     21229     21228     21230     21229     21228     21231
     21230     21228     21231     21228     21231     21232     21228     21231     21233
     21228     21231     21234     21232     21231     21233     21232     21231     21234
     21233     21231     21234     21231     21234     21235     21231     21234     21236
     21231     21234     21237     21235     21234     21236     21235     21234     21237
     21236     21234     21237     21234     21237     21238     21234     21237     21239
     21234     21237     21240     21238     21237     21239     21238     21237     21240
     21239     21237     21240     21237     21240     21241     21237     21240     21242
     21237     21240     21243     21241     21240     21242     21241     21240     21243
     21242     21240     21243     21240     21243     21244     21240     21243     21245
     21240     21243     21246     21244     21243     21245     21244     21243     21246
     21245     21243     21246     21248     21247     21249     21248     21247     21250
     21248     21247     21251     21249     21247     21250     21249     21247     21251
     21250     21247     21251     21247     21251     21252     21247     21251     21253
     21247     21251     21254     21252     21251     21253     21252     21251     21254
     21253     21251     21254     21251     21254     21255     21251     21254     21256
     21251     21254     21261     21255     21254     21256     21255     21254     21261
     21256     21254     21261     21258     21257     21259     21258     21257     21260
     21258     21257     21261     21259     21257     21260     21259     21257     21261
     21260     21257     21261     21257     21260     21262     21254     21261     21257
     21260     21262     21263     21260     21262     21264     21260     21262     21265
     21263     21262     21264     21263     21262     21265     21264     21262     21265
     21262     21265     21266     21262     21265     21267     21262     21265     21273
     21266     21265     21267     21266     21265     21273     21267     21265     21273
     21265     21267     21268     21267     21268     21269     21267     21268     21270
     21269     21268     21270     21268     21270     21271     21268     21270     21272
     21268     21270     21282     21271     21270     21272     21271     21270     21282
     21272     21270     21282     21265     21273     21274     21265     21273     21275
     21265     21273     21276     21274     21273     21275     21274     21273     21276
     21275     21273     21276     21273     21276     21277     21276     21277     21278
     21276     21277     21279     21278     21277     21279     21277     21279     21280
     21277     21279     21281     21277     21279     21326     21280     21279     21281
     21280     21279     21326     21281     21279     21326     21270     21282     21283
     21270     21282     21284     21270     21282     21285     21283     21282     21284
     21283     21282     21285     21284     21282     21285     21282     21285     21286
     21282     21285     21287     21282     21285     21288     21286     21285     21287
     21286     21285     21288     21287     21285     21288     21285     21288     21289
     21285     21288     21290     21285     21288     21291     21289     21288     21290
     21289     21288     21291     21290     21288     21291     21288     21291     21292
     21288     21291     21293     21288     21291     21294     21292     21291     21293
     21292     21291     21294     21293     21291     21294     21291     21294     21295
     21291     21294     21296     21291     21294     21297     21295     21294     21296
     21295     21294     21297     21296     21294     21297     21294     21297     21298
     21294     21297     21299     21294     21297     21300     21298     21297     21299
     21298     21297     21300     21299     21297     21300     21297     21300     21301
     21297     21300     21302     21297     21300     21305     21301     21300     21302
     21301     21300     21305     21302     21300     21305     21300     21302     21303
     21300     21302     21304     21300     21302     21305     21303     21302     21304
     21303     21302     21305     21304     21302     21305     21300     21305     21302
     21300     21305     21306     21300     21305     21307     21302     21305     21306
     21302     21305     21307     21306     21305     21307     21305     21307     21308
     21305     21307     21309     21305     21307     21310     21308     21307     21309
     21308     21307     21310     21309     21307     21310     21307     21310     21311
     21307     21310     21312     21307     21310     21313     21311     21310     21312
     21311     21310     21313     21312     21310     21313     21310     21313     21314
     21310     21313     21315     21310     21313     21316     21314     21313     21315
     21314     21313     21316     21315     21313     21316     21313     21316     21317
     21313     21316     21318     21313     21316     21319     21317     21316     21318
     21317     21316     21319     21318     21316     21319     21316     21319     21320
     21316     21319     21321     21316     21319     21322     21320     21319     21321
     21320     21319     21322     21321     21319     21322     21319     21322     21323
     21319     21322     21324     21319     21322     21325     21323     21322     21324
     21323     21322     21325     21324     21322     21325     21279     21326     21327
     21279     21326     21328     21279     21326     21329     21327     21326     21328
     21327     21326     21329     21328     21326     21329     21326     21329     21330
     21326     21329     21331     21326     21329     21332     21330     21329     21331
     21330     21329     21332     21331     21329     21332     21329     21332     21333
     21329     21332     21334     21329     21332     21335     21333     21332     21334
     21333     21332     21335     21334     21332     21335     21332     21335     21336
     21332     21335     21337     21332     21335     21338     21336     21335     21337
     21336     21335     21338     21337     21335     21338     21335     21338     21339
     21335     21338     21340     21335     21338     21341     21339     21338     21340
     21339     21338     21341     21340     21338     21341     21338     21341     21342
     21338     21341     21343     21338     21341     21344     21342     21341     21343
     21342     21341     21344     21343     21341     21344     21341     21344     21345
     21341     21344     21346     21341     21344     21347     21345     21344     21346
     21345     21344     21347     21346     21344     21347     21344     21347     21348
     21344     21347     21349     21344     21347     21350     21348     21347     21349
     21348     21347     21350     21349     21347     21350     21347     21350     21351
     21347     21350     21352     21347     21350     21353     21351     21350     21352
     21351     21350     21353     21352     21350     21353     21350     21353     21354
     21350     21353     21355     21350     21353     21356     21354     21353     21355
     21354     21353     21356     21355     21353     21356     21353     21356     21357
     21353     21356     21358     21353     21356     21359     21357     21356     21358
     21357     21356     21359     21358     21356     21359     21356     21359     21360
     21356     21359     21361     21356     21359     21362     21360     21359     21361
     21360     21359     21362     21361     21359     21362     21359     21362     21363
     21359     21362     21364     21359     21362     21365     21363     21362     21364
     21363     21362     21365     21364     21362     21365     21362     21365     21366
     21362     21365     21367     21362     21365     21368     21366     21365     21367
     21366     21365     21368     21367     21365     21368     21370     21369     21371
     21370     21369     21372     21370     21369     21373     21371     21369     21372
     21371     21369     21373     21372     21369     21373     21369     21373     21374
     21369     21373     21375     21369     21373     21376     21374     21373     21375
     21374     21373     21376     21375     21373     21376     21373     21376     21377
     21373     21376     21378     21373     21376     21383     21377     21376     21378
     21377     21376     21383     21378     21376     21383     21380     21379     21381
     21380     21379     21382     21380     21379     21383     21381     21379     21382
     21381     21379     21383     21382     21379     21383     21379     21382     21384
     21376     21383     21379     21382     21384     21385     21382     21384     21386
     21382     21384     21387     21385     21384     21386     21385     21384     21387
     21386     21384     21387     21384     21387     21388     21384     21387     21389
     21384     21387     21395     21388     21387     21389     21388     21387     21395
     21389     21387     21395     21387     21389     21390     21389     21390     21391
     21389     21390     21392     21391     21390     21392     21390     21392     21393
     21390     21392     21394     21390     21392     21404     21393     21392     21394
     21393     21392     21404     21394     21392     21404     21387     21395     21396
     21387     21395     21397     21387     21395     21398     21396     21395     21397
     21396     21395     21398     21397     21395     21398     21395     21398     21399
     21398     21399     21400     21398     21399     21401     21400     21399     21401
     21399     21401     21402     21399     21401     21403     21399     21401     21448
     21402     21401     21403     21402     21401     21448     21403     21401     21448
     21392     21404     21405     21392     21404     21406     21392     21404     21407
     21405     21404     21406     21405     21404     21407     21406     21404     21407
     21404     21407     21408     21404     21407     21409     21404     21407     21410
     21408     21407     21409     21408     21407     21410     21409     21407     21410
     21407     21410     21411     21407     21410     21412     21407     21410     21413
     21411     21410     21412     21411     21410     21413     21412     21410     21413
     21410     21413     21414     21410     21413     21415     21410     21413     21416
     21414     21413     21415     21414     21413     21416     21415     21413     21416
     21413     21416     21417     21413     21416     21418     21413     21416     21419
     21417     21416     21418     21417     21416     21419     21418     21416     21419
     21416     21419     21420     21416     21419     21421     21416     21419     21422
     21420     21419     21421     21420     21419     21422     21421     21419     21422
     21419     21422     21423     21419     21422     21424     21419     21422     21427
     21423     21422     21424     21423     21422     21427     21424     21422     21427
     21422     21424     21425     21422     21424     21426     21422     21424     21427
     21425     21424     21426     21425     21424     21427     21426     21424     21427
     21422     21427     21424     21422     21427     21428     21422     21427     21429
     21424     21427     21428     21424     21427     21429     21428     21427     21429
     21427     21429     21430     21427     21429     21431     21427     21429     21432
     21430     21429     21431     21430     21429     21432     21431     21429     21432
     21429     21432     21433     21429     21432     21434     21429     21432     21435
     21433     21432     21434     21433     21432     21435     21434     21432     21435
     21432     21435     21436     21432     21435     21437     21432     21435     21438
     21436     21435     21437     21436     21435     21438     21437     21435     21438
     21435     21438     21439     21435     21438     21440     21435     21438     21441
     21439     21438     21440     21439     21438     21441     21440     21438     21441
     21438     21441     21442     21438     21441     21443     21438     21441     21444
     21442     21441     21443     21442     21441     21444     21443     21441     21444
     21441     21444     21445     21441     21444     21446     21441     21444     21447
     21445     21444     21446     21445     21444     21447     21446     21444     21447
     21401     21448     21449     21401     21448     21450     21401     21448     21451
     21449     21448     21450     21449     21448     21451     21450     21448     21451
     21448     21451     21452     21448     21451     21453     21448     21451     21454
     21452     21451     21453     21452     21451     21454     21453     21451     21454
     21451     21454     21455     21451     21454     21456     21451     21454     21457
     21455     21454     21456     21455     21454     21457     21456     21454     21457
     21454     21457     21458     21454     21457     21459     21454     21457     21460
     21458     21457     21459     21458     21457     21460     21459     21457     21460
     21457     21460     21461     21457     21460     21462     21457     21460     21463
     21461     21460     21462     21461     21460     21463     21462     21460     21463
     21460     21463     21464     21460     21463     21465     21460     21463     21466
     21464     21463     21465     21464     21463     21466     21465     21463     21466
     21463     21466     21467     21463     21466     21468     21463     21466     21469
     21467     21466     21468     21467     21466     21469     21468     21466     21469
     21466     21469     21470     21466     21469     21471     21466     21469     21472
     21470     21469     21471     21470     21469     21472     21471     21469     21472
     21469     21472     21473     21469     21472     21474     21469     21472     21475
     21473     21472     21474     21473     21472     21475     21474     21472     21475
     21472     21475     21476     21472     21475     21477     21472     21475     21478
     21476     21475     21477     21476     21475     21478     21477     21475     21478
     21475     21478     21479     21475     21478     21480     21475     21478     21481
     21479     21478     21480     21479     21478     21481     21480     21478     21481
     21478     21481     21482     21478     21481     21483     21478     21481     21484
     21482     21481     21483     21482     21481     21484     21483     21481     21484
     21481     21484     21485     21481     21484     21486     21481     21484     21487
     21485     21484     21486     21485     21484     21487     21486     21484     21487
     21484     21487     21488     21484     21487     21489     21484     21487     21490
     21488     21487     21489     21488     21487     21490     21489     21487     21490
     21492     21491     21493     21492     21491     21494     21492     21491     21495
     21493     21491     21494     21493     21491     21495     21494     21491     21495
     21491     21495     21496     21491     21495     21497     21491     21495     21498
     21496     21495     21497     21496     21495     21498     21497     21495     21498
     21495     21498     21499     21495     21498     21500     21495     21498     21505
     21499     21498     21500     21499     21498     21505     21500     21498     21505
     21502     21501     21503     21502     21501     21504     21502     21501     21505
     21503     21501     21504     21503     21501     21505     21504     21501     21505
     21501     21504     21506     21498     21505     21501     21504     21506     21507
     21504     21506     21508     21504     21506     21509     21507     21506     21508
     21507     21506     21509     21508     21506     21509     21506     21509     21510
     21506     21509     21511     21506     21509     21517     21510     21509     21511
     21510     21509     21517     21511     21509     21517     21509     21511     21512
     21511     21512     21513     21511     21512     21514     21513     21512     21514
     21512     21514     21515     21512     21514     21516     21512     21514     21526
     21515     21514     21516     21515     21514     21526     21516     21514     21526
     21509     21517     21518     21509     21517     21519     21509     21517     21520
     21518     21517     21519     21518     21517     21520     21519     21517     21520
     21517     21520     21521     21520     21521     21522     21520     21521     21523
     21522     21521     21523     21521     21523     21524     21521     21523     21525
     21521     21523     21573     21524     21523     21525     21524     21523     21573
     21525     21523     21573     21514     21526     21527     21514     21526     21528
     21514     21526     21529     21527     21526     21528     21527     21526     21529
     21528     21526     21529     21526     21529     21530     21526     21529     21531
     21526     21529     21532     21530     21529     21531     21530     21529     21532
     21531     21529     21532     21529     21532     21533     21529     21532     21534
     21529     21532     21535     21533     21532     21534     21533     21532     21535
     21534     21532     21535     21532     21535     21536     21532     21535     21537
     21532     21535     21538     21536     21535     21537     21536     21535     21538
     21537     21535     21538     21535     21538     21539     21535     21538     21540
     21535     21538     21541     21539     21538     21540     21539     21538     21541
     21540     21538     21541     21538     21541     21542     21538     21541     21543
     21538     21541     21544     21542     21541     21543     21542     21541     21544
     21543     21541     21544     21541     21544     21545     21541     21544     21546
     21545     21544     21546     21544     21546     21547     21544     21546     21548
     21547     21546     21548     21546     21548     21549     21546     21548     21550
     21546     21548     21551     21549     21548     21550     21549     21548     21551
     21550     21548     21551     21548     21551     21552     21548     21551     21553
     21548     21551     21554     21552     21551     21553     21552     21551     21554
     21553     21551     21554     21551     21554     21555     21551     21554     21556
     21551     21554     21557     21555     21554     21556     21555     21554     21557
     21556     21554     21557     21554     21557     21558     21554     21557     21559
     21554     21557     21560     21558     21557     21559     21558     21557     21560
     21559     21557     21560     21557     21560     21561     21557     21560     21562
     21557     21560     21563     21561     21560     21562     21561     21560     21563
     21562     21560     21563     21560     21563     21564     21560     21563     21565
     21560     21563     21566     21564     21563     21565     21564     21563     21566
     21565     21563     21566     21563     21566     21567     21563     21566     21568
     21563     21566     21569     21567     21566     21568     21567     21566     21569
     21568     21566     21569     21566     21569     21570     21566     21569     21571
     21566     21569     21572     21570     21569     21571     21570     21569     21572
     21571     21569     21572     21523     21573     21574     21523     21573     21575
     21523     21573     21576     21574     21573     21575     21574     21573     21576
     21575     21573     21576     21573     21576     21577     21573     21576     21578
     21573     21576     21579     21577     21576     21578     21577     21576     21579
     21578     21576     21579     21576     21579     21580     21576     21579     21581
     21576     21579     21582     21580     21579     21581     21580     21579     21582
     21581     21579     21582     21579     21582     21583     21579     21582     21584
     21579     21582     21585     21583     21582     21584     21583     21582     21585
     21584     21582     21585     21582     21585     21586     21582     21585     21587
     21582     21585     21588     21586     21585     21587     21586     21585     21588
     21587     21585     21588     21585     21588     21589     21585     21588     21590
     21585     21588     21591     21589     21588     21590     21589     21588     21591
     21590     21588     21591     21588     21591     21592     21588     21591     21593
     21588     21591     21594     21592     21591     21593     21592     21591     21594
     21593     21591     21594     21591     21594     21595     21591     21594     21596
     21591     21594     21597     21595     21594     21596     21595     21594     21597
     21596     21594     21597     21594     21597     21598     21594     21597     21599
     21594     21597     21600     21598     21597     21599     21598     21597     21600
     21599     21597     21600     21597     21600     21601     21597     21600     21602
     21597     21600     21603     21601     21600     21602     21601     21600     21603
     21602     21600     21603     21600     21603     21604     21600     21603     21605
     21600     21603     21606     21604     21603     21605     21604     21603     21606
     21605     21603     21606     21603     21606     21607     21603     21606     21608
     21603     21606     21609     21607     21606     21608     21607     21606     21609
     21608     21606     21609     21606     21609     21610     21606     21609     21611
     21606     21609     21612     21610     21609     21611     21610     21609     21612
     21611     21609     21612     21609     21612     21613     21609     21612     21614
     21609     21612     21615     21613     21612     21614     21613     21612     21615
     21614     21612     21615     21617     21616     21618     21617     21616     21619
     21617     21616     21620     21618     21616     21619     21618     21616     21620
     21619     21616     21620     21616     21620     21621     21616     21620     21622
     21616     21620     21623     21621     21620     21622     21621     21620     21623
     21622     21620     21623     21620     21623     21624     21620     21623     21625
     21620     21623     21630     21624     21623     21625     21624     21623     21630
     21625     21623     21630     21627     21626     21628     21627     21626     21629
     21627     21626     21630     21628     21626     21629     21628     21626     21630
     21629     21626     21630     21626     21629     21631     21623     21630     21626
     21629     21631     21632     21629     21631     21633     21629     21631     21634
     21632     21631     21633     21632     21631     21634     21633     21631     21634
     21631     21634     21635     21631     21634     21636     21631     21634     21642
     21635     21634     21636     21635     21634     21642     21636     21634     21642
     21634     21636     21637     21636     21637     21638     21636     21637     21639
     21638     21637     21639     21637     21639     21640     21637     21639     21641
     21637     21639     21651     21640     21639     21641     21640     21639     21651
     21641     21639     21651     21634     21642     21643     21634     21642     21644
     21634     21642     21645     21643     21642     21644     21643     21642     21645
     21644     21642     21645     21642     21645     21646     21645     21646     21647
     21645     21646     21648     21647     21646     21648     21646     21648     21649
     21646     21648     21650     21646     21648     21698     21649     21648     21650
     21649     21648     21698     21650     21648     21698     21639     21651     21652
     21639     21651     21653     21639     21651     21654     21652     21651     21653
     21652     21651     21654     21653     21651     21654     21651     21654     21655
     21651     21654     21656     21651     21654     21657     21655     21654     21656
     21655     21654     21657     21656     21654     21657     21654     21657     21658
     21654     21657     21659     21654     21657     21660     21658     21657     21659
     21658     21657     21660     21659     21657     21660     21657     21660     21661
     21657     21660     21662     21657     21660     21663     21661     21660     21662
     21661     21660     21663     21662     21660     21663     21660     21663     21664
     21660     21663     21665     21660     21663     21666     21664     21663     21665
     21664     21663     21666     21665     21663     21666     21663     21666     21667
     21663     21666     21668     21663     21666     21669     21667     21666     21668
     21667     21666     21669     21668     21666     21669     21666     21669     21670
     21666     21669     21671     21670     21669     21671     21669     21671     21672
     21669     21671     21673     21672     21671     21673     21671     21673     21674
     21671     21673     21675     21671     21673     21676     21674     21673     21675
     21674     21673     21676     21675     21673     21676     21673     21676     21677
     21673     21676     21678     21673     21676     21679     21677     21676     21678
     21677     21676     21679     21678     21676     21679     21676     21679     21680
     21676     21679     21681     21676     21679     21682     21680     21679     21681
     21680     21679     21682     21681     21679     21682     21679     21682     21683
     21679     21682     21684     21679     21682     21685     21683     21682     21684
     21683     21682     21685     21684     21682     21685     21682     21685     21686
     21682     21685     21687     21682     21685     21688     21686     21685     21687
     21686     21685     21688     21687     21685     21688     21685     21688     21689
     21685     21688     21690     21685     21688     21691     21689     21688     21690
     21689     21688     21691     21690     21688     21691     21688     21691     21692
     21688     21691     21693     21688     21691     21694     21692     21691     21693
     21692     21691     21694     21693     21691     21694     21691     21694     21695
     21691     21694     21696     21691     21694     21697     21695     21694     21696
     21695     21694     21697     21696     21694     21697     21648     21698     21699
     21648     21698     21700     21648     21698     21701     21699     21698     21700
     21699     21698     21701     21700     21698     21701     21698     21701     21702
     21698     21701     21703     21698     21701     21704     21702     21701     21703
     21702     21701     21704     21703     21701     21704     21701     21704     21705
     21701     21704     21706     21701     21704     21707     21705     21704     21706
     21705     21704     21707     21706     21704     21707     21704     21707     21708
     21704     21707     21709     21704     21707     21710     21708     21707     21709
     21708     21707     21710     21709     21707     21710     21707     21710     21711
     21707     21710     21712     21707     21710     21713     21711     21710     21712
     21711     21710     21713     21712     21710     21713     21710     21713     21714
     21710     21713     21715     21710     21713     21716     21714     21713     21715
     21714     21713     21716     21715     21713     21716     21713     21716     21717
     21713     21716     21718     21713     21716     21719     21717     21716     21718
     21717     21716     21719     21718     21716     21719     21716     21719     21720
     21716     21719     21721     21716     21719     21722     21720     21719     21721
     21720     21719     21722     21721     21719     21722     21719     21722     21723
     21719     21722     21724     21719     21722     21725     21723     21722     21724
     21723     21722     21725     21724     21722     21725     21722     21725     21726
     21722     21725     21727     21722     21725     21728     21726     21725     21727
     21726     21725     21728     21727     21725     21728     21725     21728     21729
     21725     21728     21730     21725     21728     21731     21729     21728     21730
     21729     21728     21731     21730     21728     21731     21728     21731     21732
     21728     21731     21733     21728     21731     21734     21732     21731     21733
     21732     21731     21734     21733     21731     21734     21731     21734     21735
     21731     21734     21736     21731     21734     21737     21735     21734     21736
     21735     21734     21737     21736     21734     21737     21734     21737     21738
     21734     21737     21739     21734     21737     21740     21738     21737     21739
     21738     21737     21740     21739     21737     21740     21742     21741     21743
     21742     21741     21744     21742     21741     21745     21743     21741     21744
     21743     21741     21745     21744     21741     21745     21741     21745     21746
     21741     21745     21747     21741     21745     21748     21746     21745     21747
     21746     21745     21748     21747     21745     21748     21745     21748     21749
     21745     21748     21750     21745     21748     21755     21749     21748     21750
     21749     21748     21755     21750     21748     21755     21752     21751     21753
     21752     21751     21754     21752     21751     21755     21753     21751     21754
     21753     21751     21755     21754     21751     21755     21751     21754     21756
     21748     21755     21751     21754     21756     21757     21754     21756     21758
     21754     21756     21759     21757     21756     21758     21757     21756     21759
     21758     21756     21759     21756     21759     21760     21756     21759     21761
     21756     21759     21767     21760     21759     21761     21760     21759     21767
     21761     21759     21767     21759     21761     21762     21761     21762     21763
     21761     21762     21764     21763     21762     21764     21762     21764     21765
     21762     21764     21766     21762     21764     21776     21765     21764     21766
     21765     21764     21776     21766     21764     21776     21759     21767     21768
     21759     21767     21769     21759     21767     21770     21768     21767     21769
     21768     21767     21770     21769     21767     21770     21767     21770     21771
     21770     21771     21772     21770     21771     21773     21772     21771     21773
     21771     21773     21774     21771     21773     21775     21771     21773     21820
     21774     21773     21775     21774     21773     21820     21775     21773     21820
     21764     21776     21777     21764     21776     21778     21764     21776     21779
     21777     21776     21778     21777     21776     21779     21778     21776     21779
     21776     21779     21780     21776     21779     21781     21776     21779     21782
     21780     21779     21781     21780     21779     21782     21781     21779     21782
     21779     21782     21783     21779     21782     21784     21779     21782     21785
     21783     21782     21784     21783     21782     21785     21784     21782     21785
     21782     21785     21786     21782     21785     21787     21782     21785     21788
     21786     21785     21787     21786     21785     21788     21787     21785     21788
     21785     21788     21789     21785     21788     21790     21785     21788     21791
     21789     21788     21790     21789     21788     21791     21790     21788     21791
     21788     21791     21792     21788     21791     21793     21788     21791     21794
     21792     21791     21793     21792     21791     21794     21793     21791     21794
     21791     21794     21795     21791     21794     21796     21791     21794     21799
     21795     21794     21796     21795     21794     21799     21796     21794     21799
     21794     21796     21797     21794     21796     21798     21794     21796     21799
     21797     21796     21798     21797     21796     21799     21798     21796     21799
     21794     21799     21796     21794     21799     21800     21794     21799     21801
     21796     21799     21800     21796     21799     21801     21800     21799     21801
     21799     21801     21802     21799     21801     21803     21799     21801     21804
     21802     21801     21803     21802     21801     21804     21803     21801     21804
     21801     21804     21805     21801     21804     21806     21801     21804     21807
     21805     21804     21806     21805     21804     21807     21806     21804     21807
     21804     21807     21808     21804     21807     21809     21804     21807     21810
     21808     21807     21809     21808     21807     21810     21809     21807     21810
     21807     21810     21811     21807     21810     21812     21807     21810     21813
     21811     21810     21812     21811     21810     21813     21812     21810     21813
     21810     21813     21814     21810     21813     21815     21810     21813     21816
     21814     21813     21815     21814     21813     21816     21815     21813     21816
     21813     21816     21817     21813     21816     21818     21813     21816     21819
     21817     21816     21818     21817     21816     21819     21818     21816     21819
     21773     21820     21821     21773     21820     21822     21773     21820     21823
     21821     21820     21822     21821     21820     21823     21822     21820     21823
     21820     21823     21824     21820     21823     21825     21820     21823     21826
     21824     21823     21825     21824     21823     21826     21825     21823     21826
     21823     21826     21827     21823     21826     21828     21823     21826     21829
     21827     21826     21828     21827     21826     21829     21828     21826     21829
     21826     21829     21830     21826     21829     21831     21826     21829     21832
     21830     21829     21831     21830     21829     21832     21831     21829     21832
     21829     21832     21833     21829     21832     21834     21829     21832     21835
     21833     21832     21834     21833     21832     21835     21834     21832     21835
     21832     21835     21836     21832     21835     21837     21832     21835     21838
     21836     21835     21837     21836     21835     21838     21837     21835     21838
     21835     21838     21839     21835     21838     21840     21835     21838     21841
     21839     21838     21840     21839     21838     21841     21840     21838     21841
     21838     21841     21842     21838     21841     21843     21838     21841     21844
     21842     21841     21843     21842     21841     21844     21843     21841     21844
     21841     21844     21845     21841     21844     21846     21841     21844     21847
     21845     21844     21846     21845     21844     21847     21846     21844     21847
     21844     21847     21848     21844     21847     21849     21844     21847     21850
     21848     21847     21849     21848     21847     21850     21849     21847     21850
     21847     21850     21851     21847     21850     21852     21847     21850     21853
     21851     21850     21852     21851     21850     21853     21852     21850     21853
     21850     21853     21854     21850     21853     21855     21850     21853     21856
     21854     21853     21855     21854     21853     21856     21855     21853     21856
     21853     21856     21857     21853     21856     21858     21853     21856     21859
     21857     21856     21858     21857     21856     21859     21858     21856     21859
     21856     21859     21860     21856     21859     21861     21856     21859     21862
     21860     21859     21861     21860     21859     21862     21861     21859     21862
     21864     21863     21865     21864     21863     21866     21864     21863     21867
     21865     21863     21866     21865     21863     21867     21866     21863     21867
     21863     21867     21868     21863     21867     21869     21863     21867     21870
     21868     21867     21869     21868     21867     21870     21869     21867     21870
     21867     21870     21871     21867     21870     21872     21867     21870     21877
     21871     21870     21872     21871     21870     21877     21872     21870     21877
     21874     21873     21875     21874     21873     21876     21874     21873     21877
     21875     21873     21876     21875     21873     21877     21876     21873     21877
     21873     21876     21878     21870     21877     21873     21876     21878     21879
     21876     21878     21880     21876     21878     21881     21879     21878     21880
     21879     21878     21881     21880     21878     21881     21878     21881     21882
     21878     21881     21883     21878     21881     21889     21882     21881     21883
     21882     21881     21889     21883     21881     21889     21881     21883     21884
     21883     21884     21885     21883     21884     21886     21885     21884     21886
     21884     21886     21887     21884     21886     21888     21884     21886     21898
     21887     21886     21888     21887     21886     21898     21888     21886     21898
     21881     21889     21890     21881     21889     21891     21881     21889     21892
     21890     21889     21891     21890     21889     21892     21891     21889     21892
     21889     21892     21893     21892     21893     21894     21892     21893     21895
     21894     21893     21895     21893     21895     21896     21893     21895     21897
     21893     21895     21939     21896     21895     21897     21896     21895     21939
     21897     21895     21939     21886     21898     21899     21886     21898     21900
     21886     21898     21901     21899     21898     21900     21899     21898     21901
     21900     21898     21901     21898     21901     21902     21898     21901     21903
     21898     21901     21904     21902     21901     21903     21902     21901     21904
     21903     21901     21904     21901     21904     21905     21901     21904     21906
     21901     21904     21907     21905     21904     21906     21905     21904     21907
     21906     21904     21907     21904     21907     21908     21904     21907     21909
     21904     21907     21910     21908     21907     21909     21908     21907     21910
     21909     21907     21910     21907     21910     21911     21907     21910     21912
     21907     21910     21913     21911     21910     21912     21911     21910     21913
     21912     21910     21913     21910     21913     21914     21910     21913     21915
     21910     21913     21916     21914     21913     21915     21914     21913     21916
     21915     21913     21916     21913     21916     21917     21913     21916     21918
     21917     21916     21918     21916     21918     21919     21916     21918     21920
     21919     21918     21920     21918     21920     21921     21918     21920     21922
     21918     21920     21923     21921     21920     21922     21921     21920     21923
     21922     21920     21923     21920     21923     21924     21920     21923     21925
     21920     21923     21926     21924     21923     21925     21924     21923     21926
     21925     21923     21926     21923     21926     21927     21923     21926     21928
     21923     21926     21929     21927     21926     21928     21927     21926     21929
     21928     21926     21929     21926     21929     21930     21926     21929     21931
     21926     21929     21932     21930     21929     21931     21930     21929     21932
     21931     21929     21932     21929     21932     21933     21929     21932     21934
     21929     21932     21935     21933     21932     21934     21933     21932     21935
     21934     21932     21935     21932     21935     21936     21932     21935     21937
     21932     21935     21938     21936     21935     21937     21936     21935     21938
     21937     21935     21938     21895     21939     21940     21895     21939     21941
     21895     21939     21942     21940     21939     21941     21940     21939     21942
     21941     21939     21942     21939     21942     21943     21939     21942     21944
     21939     21942     21945     21943     21942     21944     21943     21942     21945
     21944     21942     21945     21942     21945     21946     21942     21945     21947
     21942     21945     21948     21946     21945     21947     21946     21945     21948
     21947     21945     21948     21945     21948     21949     21945     21948     21950
     21945     21948     21951     21949     21948     21950     21949     21948     21951
     21950     21948     21951     21948     21951     21952     21948     21951     21953
     21948     21951     21954     21952     21951     21953     21952     21951     21954
     21953     21951     21954     21951     21954     21955     21951     21954     21956
     21951     21954     21957     21955     21954     21956     21955     21954     21957
     21956     21954     21957     21954     21957     21958     21954     21957     21959
     21958     21957     21959     21957     21959     21960     21957     21959     21961
     21960     21959     21961     21959     21961     21962     21959     21961     21963
     21959     21961     21964     21962     21961     21963     21962     21961     21964
     21963     21961     21964     21961     21964     21965     21961     21964     21966
     21961     21964     21967     21965     21964     21966     21965     21964     21967
     21966     21964     21967     21964     21967     21968     21964     21967     21969
     21964     21967     21970     21968     21967     21969     21968     21967     21970
     21969     21967     21970     21967     21970     21971     21967     21970     21972
     21967     21970     21973     21971     21970     21972     21971     21970     21973
     21972     21970     21973     21970     21973     21974     21970     21973     21975
     21970     21973     21976     21974     21973     21975     21974     21973     21976
     21975     21973     21976     21973     21976     21977     21973     21976     21978
     21973     21976     21979     21977     21976     21978     21977     21976     21979
     21978     21976     21979     21976     21979     21980     21976     21979     21981
     21976     21979     21982     21980     21979     21981     21980     21979     21982
     21981     21979     21982     21979     21982     21983     21979     21982     21984
     21979     21982     21985     21983     21982     21984     21983     21982     21985
     21984     21982     21985     21987     21986     21988     21987     21986     21989
     21987     21986     21991     21988     21986     21989     21988     21986     21991
     21989     21986     21991     21986     21989     21990     21986     21991     21992
     21986     21991     21993     21986     21991     21995     21992     21991     21993
     21992     21991     21995     21993     21991     21995     21991     21993     21994
     21991     21995     21996     21991     21995     21997     21991     21995     22002
     21996     21995     21997     21996     21995     22002     21997     21995     22002
     21999     21998     22000     21999     21998     22001     21999     21998     22002
     22000     21998     22001     22000     21998     22002     22001     21998     22002
     21998     22001     22003     21995     22002     21998     22001     22003     22004
     22001     22003     22005     22001     22003     22006     22004     22003     22005
     22004     22003     22006     22005     22003     22006     22003     22006     22007
     22003     22006     22008     22003     22006     22014     22007     22006     22008
     22007     22006     22014     22008     22006     22014     22006     22008     22009
     22008     22009     22010     22008     22009     22011     22010     22009     22011
     22009     22011     22012     22009     22011     22013     22009     22011     22023
     22012     22011     22013     22012     22011     22023     22013     22011     22023
     22006     22014     22015     22006     22014     22016     22006     22014     22017
     22015     22014     22016     22015     22014     22017     22016     22014     22017
     22014     22017     22018     22017     22018     22019     22017     22018     22020
     22019     22018     22020     22018     22020     22021     22018     22020     22022
     22018     22020     22067     22021     22020     22022     22021     22020     22067
     22022     22020     22067     22011     22023     22024     22011     22023     22025
     22011     22023     22026     22024     22023     22025     22024     22023     22026
     22025     22023     22026     22023     22026     22027     22023     22026     22028
     22023     22026     22029     22027     22026     22028     22027     22026     22029
     22028     22026     22029     22026     22029     22030     22026     22029     22031
     22026     22029     22032     22030     22029     22031     22030     22029     22032
     22031     22029     22032     22029     22032     22033     22029     22032     22034
     22029     22032     22035     22033     22032     22034     22033     22032     22035
     22034     22032     22035     22032     22035     22036     22032     22035     22037
     22032     22035     22038     22036     22035     22037     22036     22035     22038
     22037     22035     22038     22035     22038     22039     22035     22038     22040
     22035     22038     22041     22039     22038     22040     22039     22038     22041
     22040     22038     22041     22038     22041     22042     22038     22041     22043
     22038     22041     22046     22042     22041     22043     22042     22041     22046
     22043     22041     22046     22041     22043     22044     22041     22043     22045
     22041     22043     22046     22044     22043     22045     22044     22043     22046
     22045     22043     22046     22041     22046     22043     22041     22046     22047
     22041     22046     22048     22043     22046     22047     22043     22046     22048
     22047     22046     22048     22046     22048     22049     22046     22048     22050
     22046     22048     22051     22049     22048     22050     22049     22048     22051
     22050     22048     22051     22048     22051     22052     22048     22051     22053
     22048     22051     22054     22052     22051     22053     22052     22051     22054
     22053     22051     22054     22051     22054     22055     22051     22054     22056
     22051     22054     22057     22055     22054     22056     22055     22054     22057
     22056     22054     22057     22054     22057     22058     22054     22057     22059
     22054     22057     22060     22058     22057     22059     22058     22057     22060
     22059     22057     22060     22057     22060     22061     22057     22060     22062
     22057     22060     22063     22061     22060     22062     22061     22060     22063
     22062     22060     22063     22060     22063     22064     22060     22063     22065
     22060     22063     22066     22064     22063     22065     22064     22063     22066
     22065     22063     22066     22020     22067     22068     22020     22067     22069
     22020     22067     22070     22068     22067     22069     22068     22067     22070
     22069     22067     22070     22067     22070     22071     22067     22070     22072
     22067     22070     22073     22071     22070     22072     22071     22070     22073
     22072     22070     22073     22070     22073     22074     22070     22073     22075
     22070     22073     22076     22074     22073     22075     22074     22073     22076
     22075     22073     22076     22073     22076     22077     22073     22076     22078
     22073     22076     22079     22077     22076     22078     22077     22076     22079
     22078     22076     22079     22076     22079     22080     22076     22079     22081
     22076     22079     22082     22080     22079     22081     22080     22079     22082
     22081     22079     22082     22079     22082     22083     22079     22082     22084
     22079     22082     22085     22083     22082     22084     22083     22082     22085
     22084     22082     22085     22082     22085     22086     22082     22085     22087
     22082     22085     22088     22086     22085     22087     22086     22085     22088
     22087     22085     22088     22085     22088     22089     22085     22088     22090
     22085     22088     22091     22089     22088     22090     22089     22088     22091
     22090     22088     22091     22088     22091     22092     22088     22091     22093
     22088     22091     22094     22092     22091     22093     22092     22091     22094
     22093     22091     22094     22091     22094     22095     22091     22094     22096
     22091     22094     22097     22095     22094     22096     22095     22094     22097
     22096     22094     22097     22094     22097     22098     22094     22097     22099
     22094     22097     22100     22098     22097     22099     22098     22097     22100
     22099     22097     22100     22097     22100     22101     22097     22100     22102
     22097     22100     22103     22101     22100     22102     22101     22100     22103
     22102     22100     22103     22100     22103     22104     22100     22103     22105
     22100     22103     22106     22104     22103     22105     22104     22103     22106
     22105     22103     22106     22103     22106     22107     22103     22106     22108
     22103     22106     22109     22107     22106     22108     22107     22106     22109
     22108     22106     22109     22111     22110     22112     22111     22110     22113
     22111     22110     22114     22112     22110     22113     22112     22110     22114
     22113     22110     22114     22110     22114     22115     22110     22114     22116
     22110     22114     22117     22115     22114     22116     22115     22114     22117
     22116     22114     22117     22114     22117     22118     22114     22117     22119
     22114     22117     22124     22118     22117     22119     22118     22117     22124
     22119     22117     22124     22121     22120     22122     22121     22120     22123
     22121     22120     22124     22122     22120     22123     22122     22120     22124
     22123     22120     22124     22120     22123     22125     22117     22124     22120
     22123     22125     22126     22123     22125     22127     22123     22125     22128
     22126     22125     22127     22126     22125     22128     22127     22125     22128
     22125     22128     22129     22125     22128     22130     22125     22128     22136
     22129     22128     22130     22129     22128     22136     22130     22128     22136
     22128     22130     22131     22130     22131     22132     22130     22131     22133
     22132     22131     22133     22131     22133     22134     22131     22133     22135
     22131     22133     22145     22134     22133     22135     22134     22133     22145
     22135     22133     22145     22128     22136     22137     22128     22136     22138
     22128     22136     22139     22137     22136     22138     22137     22136     22139
     22138     22136     22139     22136     22139     22140     22139     22140     22141
     22139     22140     22142     22141     22140     22142     22140     22142     22143
     22140     22142     22144     22140     22142     22189     22143     22142     22144
     22143     22142     22189     22144     22142     22189     22133     22145     22146
     22133     22145     22147     22133     22145     22148     22146     22145     22147
     22146     22145     22148     22147     22145     22148     22145     22148     22149
     22145     22148     22150     22145     22148     22151     22149     22148     22150
     22149     22148     22151     22150     22148     22151     22148     22151     22152
     22148     22151     22153     22148     22151     22154     22152     22151     22153
     22152     22151     22154     22153     22151     22154     22151     22154     22155
     22151     22154     22156     22151     22154     22157     22155     22154     22156
     22155     22154     22157     22156     22154     22157     22154     22157     22158
     22154     22157     22159     22154     22157     22160     22158     22157     22159
     22158     22157     22160     22159     22157     22160     22157     22160     22161
     22157     22160     22162     22157     22160     22163     22161     22160     22162
     22161     22160     22163     22162     22160     22163     22160     22163     22164
     22160     22163     22165     22160     22163     22168     22164     22163     22165
     22164     22163     22168     22165     22163     22168     22163     22165     22166
     22163     22165     22167     22163     22165     22168     22166     22165     22167
     22166     22165     22168     22167     22165     22168     22163     22168     22165
     22163     22168     22169     22163     22168     22170     22165     22168     22169
     22165     22168     22170     22169     22168     22170     22168     22170     22171
     22168     22170     22172     22168     22170     22173     22171     22170     22172
     22171     22170     22173     22172     22170     22173     22170     22173     22174
     22170     22173     22175     22170     22173     22176     22174     22173     22175
     22174     22173     22176     22175     22173     22176     22173     22176     22177
     22173     22176     22178     22173     22176     22179     22177     22176     22178
     22177     22176     22179     22178     22176     22179     22176     22179     22180
     22176     22179     22181     22176     22179     22182     22180     22179     22181
     22180     22179     22182     22181     22179     22182     22179     22182     22183
     22179     22182     22184     22179     22182     22185     22183     22182     22184
     22183     22182     22185     22184     22182     22185     22182     22185     22186
     22182     22185     22187     22182     22185     22188     22186     22185     22187
     22186     22185     22188     22187     22185     22188     22142     22189     22190
     22142     22189     22191     22142     22189     22192     22190     22189     22191
     22190     22189     22192     22191     22189     22192     22189     22192     22193
     22189     22192     22194     22189     22192     22195     22193     22192     22194
     22193     22192     22195     22194     22192     22195     22192     22195     22196
     22192     22195     22197     22192     22195     22198     22196     22195     22197
     22196     22195     22198     22197     22195     22198     22195     22198     22199
     22195     22198     22200     22195     22198     22201     22199     22198     22200
     22199     22198     22201     22200     22198     22201     22198     22201     22202
     22198     22201     22203     22198     22201     22204     22202     22201     22203
     22202     22201     22204     22203     22201     22204     22201     22204     22205
     22201     22204     22206     22201     22204     22207     22205     22204     22206
     22205     22204     22207     22206     22204     22207     22204     22207     22208
     22204     22207     22209     22204     22207     22210     22208     22207     22209
     22208     22207     22210     22209     22207     22210     22207     22210     22211
     22207     22210     22212     22207     22210     22213     22211     22210     22212
     22211     22210     22213     22212     22210     22213     22210     22213     22214
     22210     22213     22215     22210     22213     22216     22214     22213     22215
     22214     22213     22216     22215     22213     22216     22213     22216     22217
     22213     22216     22218     22213     22216     22219     22217     22216     22218
     22217     22216     22219     22218     22216     22219     22216     22219     22220
     22216     22219     22221     22216     22219     22222     22220     22219     22221
     22220     22219     22222     22221     22219     22222     22219     22222     22223
     22219     22222     22224     22219     22222     22225     22223     22222     22224
     22223     22222     22225     22224     22222     22225     22222     22225     22226
     22222     22225     22227     22222     22225     22228     22226     22225     22227
     22226     22225     22228     22227     22225     22228     22225     22228     22229
     22225     22228     22230     22225     22228     22231     22229     22228     22230
     22229     22228     22231     22230     22228     22231     22233     22232     22234
     22233     22232     22235     22233     22232     22236     22234     22232     22235
     22234     22232     22236     22235     22232     22236     22232     22236     22237
     22232     22236     22238     22232     22236     22239     22237     22236     22238
     22237     22236     22239     22238     22236     22239     22236     22239     22240
     22236     22239     22241     22236     22239     22246     22240     22239     22241
     22240     22239     22246     22241     22239     22246     22243     22242     22244
     22243     22242     22245     22243     22242     22246     22244     22242     22245
     22244     22242     22246     22245     22242     22246     22242     22245     22247
     22239     22246     22242     22245     22247     22248     22245     22247     22249
     22245     22247     22250     22248     22247     22249     22248     22247     22250
     22249     22247     22250     22247     22250     22251     22247     22250     22252
     22247     22250     22258     22251     22250     22252     22251     22250     22258
     22252     22250     22258     22250     22252     22253     22252     22253     22254
     22252     22253     22255     22254     22253     22255     22253     22255     22256
     22253     22255     22257     22253     22255     22267     22256     22255     22257
     22256     22255     22267     22257     22255     22267     22250     22258     22259
     22250     22258     22260     22250     22258     22261     22259     22258     22260
     22259     22258     22261     22260     22258     22261     22258     22261     22262
     22261     22262     22263     22261     22262     22264     22263     22262     22264
     22262     22264     22265     22262     22264     22266     22262     22264     22311
     22265     22264     22266     22265     22264     22311     22266     22264     22311
     22255     22267     22268     22255     22267     22269     22255     22267     22270
     22268     22267     22269     22268     22267     22270     22269     22267     22270
     22267     22270     22271     22267     22270     22272     22267     22270     22273
     22271     22270     22272     22271     22270     22273     22272     22270     22273
     22270     22273     22274     22270     22273     22275     22270     22273     22276
     22274     22273     22275     22274     22273     22276     22275     22273     22276
     22273     22276     22277     22273     22276     22278     22273     22276     22279
     22277     22276     22278     22277     22276     22279     22278     22276     22279
     22276     22279     22280     22276     22279     22281     22276     22279     22282
     22280     22279     22281     22280     22279     22282     22281     22279     22282
     22279     22282     22283     22279     22282     22284     22279     22282     22285
     22283     22282     22284     22283     22282     22285     22284     22282     22285
     22282     22285     22286     22282     22285     22287     22282     22285     22290
     22286     22285     22287     22286     22285     22290     22287     22285     22290
     22285     22287     22288     22285     22287     22289     22285     22287     22290
     22288     22287     22289     22288     22287     22290     22289     22287     22290
     22285     22290     22287     22285     22290     22291     22285     22290     22292
     22287     22290     22291     22287     22290     22292     22291     22290     22292
     22290     22292     22293     22290     22292     22294     22290     22292     22295
     22293     22292     22294     22293     22292     22295     22294     22292     22295
     22292     22295     22296     22292     22295     22297     22292     22295     22298
     22296     22295     22297     22296     22295     22298     22297     22295     22298
     22295     22298     22299     22295     22298     22300     22295     22298     22301
     22299     22298     22300     22299     22298     22301     22300     22298     22301
     22298     22301     22302     22298     22301     22303     22298     22301     22304
     22302     22301     22303     22302     22301     22304     22303     22301     22304
     22301     22304     22305     22301     22304     22306     22301     22304     22307
     22305     22304     22306     22305     22304     22307     22306     22304     22307
     22304     22307     22308     22304     22307     22309     22304     22307     22310
     22308     22307     22309     22308     22307     22310     22309     22307     22310
     22264     22311     22312     22264     22311     22313     22264     22311     22314
     22312     22311     22313     22312     22311     22314     22313     22311     22314
     22311     22314     22315     22311     22314     22316     22311     22314     22317
     22315     22314     22316     22315     22314     22317     22316     22314     22317
     22314     22317     22318     22314     22317     22319     22314     22317     22320
     22318     22317     22319     22318     22317     22320     22319     22317     22320
     22317     22320     22321     22317     22320     22322     22317     22320     22323
     22321     22320     22322     22321     22320     22323     22322     22320     22323
     22320     22323     22324     22320     22323     22325     22320     22323     22326
     22324     22323     22325     22324     22323     22326     22325     22323     22326
     22323     22326     22327     22323     22326     22328     22323     22326     22329
     22327     22326     22328     22327     22326     22329     22328     22326     22329
     22326     22329     22330     22326     22329     22331     22326     22329     22332
     22330     22329     22331     22330     22329     22332     22331     22329     22332
     22329     22332     22333     22329     22332     22334     22329     22332     22335
     22333     22332     22334     22333     22332     22335     22334     22332     22335
     22332     22335     22336     22332     22335     22337     22332     22335     22338
     22336     22335     22337     22336     22335     22338     22337     22335     22338
     22335     22338     22339     22335     22338     22340     22335     22338     22341
     22339     22338     22340     22339     22338     22341     22340     22338     22341
     22338     22341     22342     22338     22341     22343     22338     22341     22344
     22342     22341     22343     22342     22341     22344     22343     22341     22344
     22341     22344     22345     22341     22344     22346     22341     22344     22347
     22345     22344     22346     22345     22344     22347     22346     22344     22347
     22344     22347     22348     22344     22347     22349     22344     22347     22350
     22348     22347     22349     22348     22347     22350     22349     22347     22350
     22347     22350     22351     22347     22350     22352     22347     22350     22353
     22351     22350     22352     22351     22350     22353     22352     22350     22353
     22355     22354     22356     22355     22354     22357     22355     22354     22359
     22356     22354     22357     22356     22354     22359     22357     22354     22359
     22354     22357     22358     22354     22359     22360     22354     22359     22361
     22354     22359     22363     22360     22359     22361     22360     22359     22363
     22361     22359     22363     22359     22361     22362     22359     22363     22364
     22359     22363     22365     22359     22363     22370     22364     22363     22365
     22364     22363     22370     22365     22363     22370     22367     22366     22368
     22367     22366     22369     22367     22366     22370     22368     22366     22369
     22368     22366     22370     22369     22366     22370     22366     22369     22371
     22363     22370     22366     22369     22371     22372     22369     22371     22373
     22369     22371     22374     22372     22371     22373     22372     22371     22374
     22373     22371     22374     22371     22374     22375     22371     22374     22376
     22371     22374     22382     22375     22374     22376     22375     22374     22382
     22376     22374     22382     22374     22376     22377     22376     22377     22378
     22376     22377     22379     22378     22377     22379     22377     22379     22380
     22377     22379     22381     22377     22379     22391     22380     22379     22381
     22380     22379     22391     22381     22379     22391     22374     22382     22383
     22374     22382     22384     22374     22382     22385     22383     22382     22384
     22383     22382     22385     22384     22382     22385     22382     22385     22386
     22385     22386     22387     22385     22386     22388     22387     22386     22388
     22386     22388     22389     22386     22388     22390     22386     22388     22432
     22389     22388     22390     22389     22388     22432     22390     22388     22432
     22379     22391     22392     22379     22391     22393     22379     22391     22394
     22392     22391     22393     22392     22391     22394     22393     22391     22394
     22391     22394     22395     22391     22394     22396     22391     22394     22397
     22395     22394     22396     22395     22394     22397     22396     22394     22397
     22394     22397     22398     22394     22397     22399     22394     22397     22400
     22398     22397     22399     22398     22397     22400     22399     22397     22400
     22397     22400     22401     22397     22400     22402     22397     22400     22403
     22401     22400     22402     22401     22400     22403     22402     22400     22403
     22400     22403     22404     22400     22403     22405     22400     22403     22406
     22404     22403     22405     22404     22403     22406     22405     22403     22406
     22403     22406     22407     22403     22406     22408     22403     22406     22409
     22407     22406     22408     22407     22406     22409     22408     22406     22409
     22406     22409     22410     22406     22409     22411     22410     22409     22411
     22409     22411     22412     22409     22411     22413     22412     22411     22413
     22411     22413     22414     22411     22413     22415     22411     22413     22416
     22414     22413     22415     22414     22413     22416     22415     22413     22416
     22413     22416     22417     22413     22416     22418     22413     22416     22419
     22417     22416     22418     22417     22416     22419     22418     22416     22419
     22416     22419     22420     22416     22419     22421     22416     22419     22422
     22420     22419     22421     22420     22419     22422     22421     22419     22422
     22419     22422     22423     22419     22422     22424     22419     22422     22425
     22423     22422     22424     22423     22422     22425     22424     22422     22425
     22422     22425     22426     22422     22425     22427     22422     22425     22428
     22426     22425     22427     22426     22425     22428     22427     22425     22428
     22425     22428     22429     22425     22428     22430     22425     22428     22431
     22429     22428     22430     22429     22428     22431     22430     22428     22431
     22388     22432     22433     22388     22432     22434     22388     22432     22435
     22433     22432     22434     22433     22432     22435     22434     22432     22435
     22432     22435     22436     22432     22435     22437     22432     22435     22438
     22436     22435     22437     22436     22435     22438     22437     22435     22438
     22435     22438     22439     22435     22438     22440     22435     22438     22441
     22439     22438     22440     22439     22438     22441     22440     22438     22441
     22438     22441     22442     22438     22441     22443     22438     22441     22444
     22442     22441     22443     22442     22441     22444     22443     22441     22444
     22441     22444     22445     22441     22444     22446     22441     22444     22447
     22445     22444     22446     22445     22444     22447     22446     22444     22447
     22444     22447     22448     22444     22447     22449     22444     22447     22450
     22448     22447     22449     22448     22447     22450     22449     22447     22450
     22447     22450     22451     22447     22450     22452     22447     22450     22453
     22451     22450     22452     22451     22450     22453     22452     22450     22453
     22450     22453     22454     22450     22453     22455     22450     22453     22456
     22454     22453     22455     22454     22453     22456     22455     22453     22456
     22453     22456     22457     22453     22456     22458     22453     22456     22459
     22457     22456     22458     22457     22456     22459     22458     22456     22459
     22456     22459     22460     22456     22459     22461     22456     22459     22462
     22460     22459     22461     22460     22459     22462     22461     22459     22462
     22459     22462     22463     22459     22462     22464     22459     22462     22465
     22463     22462     22464     22463     22462     22465     22464     22462     22465
     22462     22465     22466     22462     22465     22467     22462     22465     22468
     22466     22465     22467     22466     22465     22468     22467     22465     22468
     22465     22468     22469     22465     22468     22470     22465     22468     22471
     22469     22468     22470     22469     22468     22471     22470     22468     22471
     22468     22471     22472     22468     22471     22473     22468     22471     22474
     22472     22471     22473     22472     22471     22474     22473     22471     22474
     22476     22475     22477     22476     22475     22478     22476     22475     22479
     22477     22475     22478     22477     22475     22479     22478     22475     22479
     22475     22479     22480     22475     22479     22481     22475     22479     22482
     22480     22479     22481     22480     22479     22482     22481     22479     22482
     22479     22482     22483     22479     22482     22484     22479     22482     22489
     22483     22482     22484     22483     22482     22489     22484     22482     22489
     22486     22485     22487     22486     22485     22488     22486     22485     22489
     22487     22485     22488     22487     22485     22489     22488     22485     22489
     22485     22488     22490     22482     22489     22485     22488     22490     22491
     22488     22490     22492     22488     22490     22493     22491     22490     22492
     22491     22490     22493     22492     22490     22493     22490     22493     22494
     22490     22493     22495     22490     22493     22501     22494     22493     22495
     22494     22493     22501     22495     22493     22501     22493     22495     22496
     22495     22496     22497     22495     22496     22498     22497     22496     22498
     22496     22498     22499     22496     22498     22500     22496     22498     22510
     22499     22498     22500     22499     22498     22510     22500     22498     22510
     22493     22501     22502     22493     22501     22503     22493     22501     22504
     22502     22501     22503     22502     22501     22504     22503     22501     22504
     22501     22504     22505     22504     22505     22506     22504     22505     22507
     22506     22505     22507     22505     22507     22508     22505     22507     22509
     22505     22507     22551     22508     22507     22509     22508     22507     22551
     22509     22507     22551     22498     22510     22511     22498     22510     22512
     22498     22510     22513     22511     22510     22512     22511     22510     22513
     22512     22510     22513     22510     22513     22514     22510     22513     22515
     22510     22513     22516     22514     22513     22515     22514     22513     22516
     22515     22513     22516     22513     22516     22517     22513     22516     22518
     22513     22516     22519     22517     22516     22518     22517     22516     22519
     22518     22516     22519     22516     22519     22520     22516     22519     22521
     22516     22519     22522     22520     22519     22521     22520     22519     22522
     22521     22519     22522     22519     22522     22523     22519     22522     22524
     22519     22522     22525     22523     22522     22524     22523     22522     22525
     22524     22522     22525     22522     22525     22526     22522     22525     22527
     22522     22525     22528     22526     22525     22527     22526     22525     22528
     22527     22525     22528     22525     22528     22529     22525     22528     22530
     22529     22528     22530     22528     22530     22531     22528     22530     22532
     22531     22530     22532     22530     22532     22533     22530     22532     22534
     22530     22532     22535     22533     22532     22534     22533     22532     22535
     22534     22532     22535     22532     22535     22536     22532     22535     22537
     22532     22535     22538     22536     22535     22537     22536     22535     22538
     22537     22535     22538     22535     22538     22539     22535     22538     22540
     22535     22538     22541     22539     22538     22540     22539     22538     22541
     22540     22538     22541     22538     22541     22542     22538     22541     22543
     22538     22541     22544     22542     22541     22543     22542     22541     22544
     22543     22541     22544     22541     22544     22545     22541     22544     22546
     22541     22544     22547     22545     22544     22546     22545     22544     22547
     22546     22544     22547     22544     22547     22548     22544     22547     22549
     22544     22547     22550     22548     22547     22549     22548     22547     22550
     22549     22547     22550     22507     22551     22552     22507     22551     22553
     22507     22551     22554     22552     22551     22553     22552     22551     22554
     22553     22551     22554     22551     22554     22555     22551     22554     22556
     22551     22554     22557     22555     22554     22556     22555     22554     22557
     22556     22554     22557     22554     22557     22558     22554     22557     22559
     22554     22557     22560     22558     22557     22559     22558     22557     22560
     22559     22557     22560     22557     22560     22561     22557     22560     22562
     22557     22560     22563     22561     22560     22562     22561     22560     22563
     22562     22560     22563     22560     22563     22564     22560     22563     22565
     22560     22563     22566     22564     22563     22565     22564     22563     22566
     22565     22563     22566     22563     22566     22567     22563     22566     22568
     22563     22566     22569     22567     22566     22568     22567     22566     22569
     22568     22566     22569     22566     22569     22570     22566     22569     22571
     22570     22569     22571     22569     22571     22572     22569     22571     22573
     22572     22571     22573     22571     22573     22574     22571     22573     22575
     22571     22573     22576     22574     22573     22575     22574     22573     22576
     22575     22573     22576     22573     22576     22577     22573     22576     22578
     22573     22576     22579     22577     22576     22578     22577     22576     22579
     22578     22576     22579     22576     22579     22580     22576     22579     22581
     22576     22579     22582     22580     22579     22581     22580     22579     22582
     22581     22579     22582     22579     22582     22583     22579     22582     22584
     22579     22582     22585     22583     22582     22584     22583     22582     22585
     22584     22582     22585     22582     22585     22586     22582     22585     22587
     22582     22585     22588     22586     22585     22587     22586     22585     22588
     22587     22585     22588     22585     22588     22589     22585     22588     22590
     22585     22588     22591     22589     22588     22590     22589     22588     22591
     22590     22588     22591     22588     22591     22592     22588     22591     22593
     22588     22591     22594     22592     22591     22593     22592     22591     22594
     22593     22591     22594     22591     22594     22595     22591     22594     22596
     22591     22594     22597     22595     22594     22596     22595     22594     22597
     22596     22594     22597     22599     22598     22600     22599     22598     22601
     22599     22598     22602     22600     22598     22601     22600     22598     22602
     22601     22598     22602     22598     22602     22603     22598     22602     22604
     22598     22602     22605     22603     22602     22604     22603     22602     22605
     22604     22602     22605     22602     22605     22606     22602     22605     22607
     22602     22605     22612     22606     22605     22607     22606     22605     22612
     22607     22605     22612     22609     22608     22610     22609     22608     22611
     22609     22608     22612     22610     22608     22611     22610     22608     22612
     22611     22608     22612     22608     22611     22613     22605     22612     22608
     22611     22613     22614     22611     22613     22615     22611     22613     22616
     22614     22613     22615     22614     22613     22616     22615     22613     22616
     22613     22616     22617     22613     22616     22618     22613     22616     22624
     22617     22616     22618     22617     22616     22624     22618     22616     22624
     22616     22618     22619     22618     22619     22620     22618     22619     22621
     22620     22619     22621     22619     22621     22622     22619     22621     22623
     22619     22621     22633     22622     22621     22623     22622     22621     22633
     22623     22621     22633     22616     22624     22625     22616     22624     22626
     22616     22624     22627     22625     22624     22626     22625     22624     22627
     22626     22624     22627     22624     22627     22628     22627     22628     22629
     22627     22628     22630     22629     22628     22630     22628     22630     22631
     22628     22630     22632     22628     22630     22677     22631     22630     22632
     22631     22630     22677     22632     22630     22677     22621     22633     22634
     22621     22633     22635     22621     22633     22636     22634     22633     22635
     22634     22633     22636     22635     22633     22636     22633     22636     22637
     22633     22636     22638     22633     22636     22639     22637     22636     22638
     22637     22636     22639     22638     22636     22639     22636     22639     22640
     22636     22639     22641     22636     22639     22642     22640     22639     22641
     22640     22639     22642     22641     22639     22642     22639     22642     22643
     22639     22642     22644     22639     22642     22645     22643     22642     22644
     22643     22642     22645     22644     22642     22645     22642     22645     22646
     22642     22645     22647     22642     22645     22648     22646     22645     22647
     22646     22645     22648     22647     22645     22648     22645     22648     22649
     22645     22648     22650     22645     22648     22651     22649     22648     22650
     22649     22648     22651     22650     22648     22651     22648     22651     22652
     22648     22651     22653     22648     22651     22656     22652     22651     22653
     22652     22651     22656     22653     22651     22656     22651     22653     22654
     22651     22653     22655     22651     22653     22656     22654     22653     22655
     22654     22653     22656     22655     22653     22656     22651     22656     22653
     22651     22656     22657     22651     22656     22658     22653     22656     22657
     22653     22656     22658     22657     22656     22658     22656     22658     22659
     22656     22658     22660     22656     22658     22661     22659     22658     22660
     22659     22658     22661     22660     22658     22661     22658     22661     22662
     22658     22661     22663     22658     22661     22664     22662     22661     22663
     22662     22661     22664     22663     22661     22664     22661     22664     22665
     22661     22664     22666     22661     22664     22667     22665     22664     22666
     22665     22664     22667     22666     22664     22667     22664     22667     22668
     22664     22667     22669     22664     22667     22670     22668     22667     22669
     22668     22667     22670     22669     22667     22670     22667     22670     22671
     22667     22670     22672     22667     22670     22673     22671     22670     22672
     22671     22670     22673     22672     22670     22673     22670     22673     22674
     22670     22673     22675     22670     22673     22676     22674     22673     22675
     22674     22673     22676     22675     22673     22676     22630     22677     22678
     22630     22677     22679     22630     22677     22680     22678     22677     22679
     22678     22677     22680     22679     22677     22680     22677     22680     22681
     22677     22680     22682     22677     22680     22683     22681     22680     22682
     22681     22680     22683     22682     22680     22683     22680     22683     22684
     22680     22683     22685     22680     22683     22686     22684     22683     22685
     22684     22683     22686     22685     22683     22686     22683     22686     22687
     22683     22686     22688     22683     22686     22689     22687     22686     22688
     22687     22686     22689     22688     22686     22689     22686     22689     22690
     22686     22689     22691     22686     22689     22692     22690     22689     22691
     22690     22689     22692     22691     22689     22692     22689     22692     22693
     22689     22692     22694     22689     22692     22695     22693     22692     22694
     22693     22692     22695     22694     22692     22695     22692     22695     22696
     22692     22695     22697     22692     22695     22698     22696     22695     22697
     22696     22695     22698     22697     22695     22698     22695     22698     22699
     22695     22698     22700     22695     22698     22701     22699     22698     22700
     22699     22698     22701     22700     22698     22701     22698     22701     22702
     22698     22701     22703     22698     22701     22704     22702     22701     22703
     22702     22701     22704     22703     22701     22704     22701     22704     22705
     22701     22704     22706     22701     22704     22707     22705     22704     22706
     22705     22704     22707     22706     22704     22707     22704     22707     22708
     22704     22707     22709     22704     22707     22710     22708     22707     22709
     22708     22707     22710     22709     22707     22710     22707     22710     22711
     22707     22710     22712     22707     22710     22713     22711     22710     22712
     22711     22710     22713     22712     22710     22713     22710     22713     22714
     22710     22713     22715     22710     22713     22716     22714     22713     22715
     22714     22713     22716     22715     22713     22716     22713     22716     22717
     22713     22716     22718     22713     22716     22719     22717     22716     22718
     22717     22716     22719     22718     22716     22719     22721     22720     22722
     22721     22720     22723     22721     22720     22724     22722     22720     22723
     22722     22720     22724     22723     22720     22724     22720     22724     22725
     22720     22724     22726     22720     22724     22727     22725     22724     22726
     22725     22724     22727     22726     22724     22727     22724     22727     22728
     22724     22727     22729     22724     22727     22734     22728     22727     22729
     22728     22727     22734     22729     22727     22734     22731     22730     22732
     22731     22730     22733     22731     22730     22734     22732     22730     22733
     22732     22730     22734     22733     22730     22734     22730     22733     22735
     22727     22734     22730     22733     22735     22736     22733     22735     22737
     22733     22735     22738     22736     22735     22737     22736     22735     22738
     22737     22735     22738     22735     22738     22739     22735     22738     22740
     22735     22738     22746     22739     22738     22740     22739     22738     22746
     22740     22738     22746     22738     22740     22741     22740     22741     22742
     22740     22741     22743     22742     22741     22743     22741     22743     22744
     22741     22743     22745     22741     22743     22755     22744     22743     22745
     22744     22743     22755     22745     22743     22755     22738     22746     22747
     22738     22746     22748     22738     22746     22749     22747     22746     22748
     22747     22746     22749     22748     22746     22749     22746     22749     22750
     22749     22750     22751     22749     22750     22752     22751     22750     22752
     22750     22752     22753     22750     22752     22754     22750     22752     22799
     22753     22752     22754     22753     22752     22799     22754     22752     22799
     22743     22755     22756     22743     22755     22757     22743     22755     22758
     22756     22755     22757     22756     22755     22758     22757     22755     22758
     22755     22758     22759     22755     22758     22760     22755     22758     22761
     22759     22758     22760     22759     22758     22761     22760     22758     22761
     22758     22761     22762     22758     22761     22763     22758     22761     22764
     22762     22761     22763     22762     22761     22764     22763     22761     22764
     22761     22764     22765     22761     22764     22766     22761     22764     22767
     22765     22764     22766     22765     22764     22767     22766     22764     22767
     22764     22767     22768     22764     22767     22769     22764     22767     22770
     22768     22767     22769     22768     22767     22770     22769     22767     22770
     22767     22770     22771     22767     22770     22772     22767     22770     22773
     22771     22770     22772     22771     22770     22773     22772     22770     22773
     22770     22773     22774     22770     22773     22775     22770     22773     22778
     22774     22773     22775     22774     22773     22778     22775     22773     22778
     22773     22775     22776     22773     22775     22777     22773     22775     22778
     22776     22775     22777     22776     22775     22778     22777     22775     22778
     22773     22778     22775     22773     22778     22779     22773     22778     22780
     22775     22778     22779     22775     22778     22780     22779     22778     22780
     22778     22780     22781     22778     22780     22782     22778     22780     22783
     22781     22780     22782     22781     22780     22783     22782     22780     22783
     22780     22783     22784     22780     22783     22785     22780     22783     22786
     22784     22783     22785     22784     22783     22786     22785     22783     22786
     22783     22786     22787     22783     22786     22788     22783     22786     22789
     22787     22786     22788     22787     22786     22789     22788     22786     22789
     22786     22789     22790     22786     22789     22791     22786     22789     22792
     22790     22789     22791     22790     22789     22792     22791     22789     22792
     22789     22792     22793     22789     22792     22794     22789     22792     22795
     22793     22792     22794     22793     22792     22795     22794     22792     22795
     22792     22795     22796     22792     22795     22797     22792     22795     22798
     22796     22795     22797     22796     22795     22798     22797     22795     22798
     22752     22799     22800     22752     22799     22801     22752     22799     22802
     22800     22799     22801     22800     22799     22802     22801     22799     22802
     22799     22802     22803     22799     22802     22804     22799     22802     22805
     22803     22802     22804     22803     22802     22805     22804     22802     22805
     22802     22805     22806     22802     22805     22807     22802     22805     22808
     22806     22805     22807     22806     22805     22808     22807     22805     22808
     22805     22808     22809     22805     22808     22810     22805     22808     22811
     22809     22808     22810     22809     22808     22811     22810     22808     22811
     22808     22811     22812     22808     22811     22813     22808     22811     22814
     22812     22811     22813     22812     22811     22814     22813     22811     22814
     22811     22814     22815     22811     22814     22816     22811     22814     22817
     22815     22814     22816     22815     22814     22817     22816     22814     22817
     22814     22817     22818     22814     22817     22819     22814     22817     22820
     22818     22817     22819     22818     22817     22820     22819     22817     22820
     22817     22820     22821     22817     22820     22822     22817     22820     22823
     22821     22820     22822     22821     22820     22823     22822     22820     22823
     22820     22823     22824     22820     22823     22825     22820     22823     22826
     22824     22823     22825     22824     22823     22826     22825     22823     22826
     22823     22826     22827     22823     22826     22828     22823     22826     22829
     22827     22826     22828     22827     22826     22829     22828     22826     22829
     22826     22829     22830     22826     22829     22831     22826     22829     22832
     22830     22829     22831     22830     22829     22832     22831     22829     22832
     22829     22832     22833     22829     22832     22834     22829     22832     22835
     22833     22832     22834     22833     22832     22835     22834     22832     22835
     22832     22835     22836     22832     22835     22837     22832     22835     22838
     22836     22835     22837     22836     22835     22838     22837     22835     22838
     22840     22839     22841     22840     22839     22842     22840     22839     22844
     22841     22839     22842     22841     22839     22844     22842     22839     22844
     22839     22842     22843     22839     22844     22845     22839     22844     22846
     22839     22844     22848     22845     22844     22846     22845     22844     22848
     22846     22844     22848     22844     22846     22847     22844     22848     22849
     22844     22848     22850     22844     22848     22855     22849     22848     22850
     22849     22848     22855     22850     22848     22855     22852     22851     22853
     22852     22851     22854     22852     22851     22855     22853     22851     22854
     22853     22851     22855     22854     22851     22855     22851     22854     22856
     22848     22855     22851     22854     22856     22857     22854     22856     22858
     22854     22856     22859     22857     22856     22858     22857     22856     22859
     22858     22856     22859     22856     22859     22860     22856     22859     22861
     22856     22859     22867     22860     22859     22861     22860     22859     22867
     22861     22859     22867     22859     22861     22862     22861     22862     22863
     22861     22862     22864     22863     22862     22864     22862     22864     22865
     22862     22864     22866     22862     22864     22876     22865     22864     22866
     22865     22864     22876     22866     22864     22876     22859     22867     22868
     22859     22867     22869     22859     22867     22870     22868     22867     22869
     22868     22867     22870     22869     22867     22870     22867     22870     22871
     22870     22871     22872     22870     22871     22873     22872     22871     22873
     22871     22873     22874     22871     22873     22875     22871     22873     22920
     22874     22873     22875     22874     22873     22920     22875     22873     22920
     22864     22876     22877     22864     22876     22878     22864     22876     22879
     22877     22876     22878     22877     22876     22879     22878     22876     22879
     22876     22879     22880     22876     22879     22881     22876     22879     22882
     22880     22879     22881     22880     22879     22882     22881     22879     22882
     22879     22882     22883     22879     22882     22884     22879     22882     22885
     22883     22882     22884     22883     22882     22885     22884     22882     22885
     22882     22885     22886     22882     22885     22887     22882     22885     22888
     22886     22885     22887     22886     22885     22888     22887     22885     22888
     22885     22888     22889     22885     22888     22890     22885     22888     22891
     22889     22888     22890     22889     22888     22891     22890     22888     22891
     22888     22891     22892     22888     22891     22893     22888     22891     22894
     22892     22891     22893     22892     22891     22894     22893     22891     22894
     22891     22894     22895     22891     22894     22896     22891     22894     22899
     22895     22894     22896     22895     22894     22899     22896     22894     22899
     22894     22896     22897     22894     22896     22898     22894     22896     22899
     22897     22896     22898     22897     22896     22899     22898     22896     22899
     22894     22899     22896     22894     22899     22900     22894     22899     22901
     22896     22899     22900     22896     22899     22901     22900     22899     22901
     22899     22901     22902     22899     22901     22903     22899     22901     22904
     22902     22901     22903     22902     22901     22904     22903     22901     22904
     22901     22904     22905     22901     22904     22906     22901     22904     22907
     22905     22904     22906     22905     22904     22907     22906     22904     22907
     22904     22907     22908     22904     22907     22909     22904     22907     22910
     22908     22907     22909     22908     22907     22910     22909     22907     22910
     22907     22910     22911     22907     22910     22912     22907     22910     22913
     22911     22910     22912     22911     22910     22913     22912     22910     22913
     22910     22913     22914     22910     22913     22915     22910     22913     22916
     22914     22913     22915     22914     22913     22916     22915     22913     22916
     22913     22916     22917     22913     22916     22918     22913     22916     22919
     22917     22916     22918     22917     22916     22919     22918     22916     22919
     22873     22920     22921     22873     22920     22922     22873     22920     22923
     22921     22920     22922     22921     22920     22923     22922     22920     22923
     22920     22923     22924     22920     22923     22925     22920     22923     22926
     22924     22923     22925     22924     22923     22926     22925     22923     22926
     22923     22926     22927     22923     22926     22928     22923     22926     22929
     22927     22926     22928     22927     22926     22929     22928     22926     22929
     22926     22929     22930     22926     22929     22931     22926     22929     22932
     22930     22929     22931     22930     22929     22932     22931     22929     22932
     22929     22932     22933     22929     22932     22934     22929     22932     22935
     22933     22932     22934     22933     22932     22935     22934     22932     22935
     22932     22935     22936     22932     22935     22937     22932     22935     22938
     22936     22935     22937     22936     22935     22938     22937     22935     22938
     22935     22938     22939     22935     22938     22940     22935     22938     22941
     22939     22938     22940     22939     22938     22941     22940     22938     22941
     22938     22941     22942     22938     22941     22943     22938     22941     22944
     22942     22941     22943     22942     22941     22944     22943     22941     22944
     22941     22944     22945     22941     22944     22946     22941     22944     22947
     22945     22944     22946     22945     22944     22947     22946     22944     22947
     22944     22947     22948     22944     22947     22949     22944     22947     22950
     22948     22947     22949     22948     22947     22950     22949     22947     22950
     22947     22950     22951     22947     22950     22952     22947     22950     22953
     22951     22950     22952     22951     22950     22953     22952     22950     22953
     22950     22953     22954     22950     22953     22955     22950     22953     22956
     22954     22953     22955     22954     22953     22956     22955     22953     22956
     22953     22956     22957     22953     22956     22958     22953     22956     22959
     22957     22956     22958     22957     22956     22959     22958     22956     22959
     22956     22959     22960     22956     22959     22961     22956     22959     22962
     22960     22959     22961     22960     22959     22962     22961     22959     22962
     22964     22963     22965     22964     22963     22966     22964     22963     22967
     22965     22963     22966     22965     22963     22967     22966     22963     22967
     22963     22967     22968     22963     22967     22969     22963     22967     22970
     22968     22967     22969     22968     22967     22970     22969     22967     22970
     22967     22970     22971     22967     22970     22972     22967     22970     22977
     22971     22970     22972     22971     22970     22977     22972     22970     22977
     22974     22973     22975     22974     22973     22976     22974     22973     22977
     22975     22973     22976     22975     22973     22977     22976     22973     22977
     22973     22976     22978     22970     22977     22973     22976     22978     22979
     22976     22978     22980     22976     22978     22981     22979     22978     22980
     22979     22978     22981     22980     22978     22981     22978     22981     22982
     22978     22981     22983     22978     22981     22989     22982     22981     22983
     22982     22981     22989     22983     22981     22989     22981     22983     22984
     22983     22984     22985     22983     22984     22986     22985     22984     22986
     22984     22986     22987     22984     22986     22988     22984     22986     22998
     22987     22986     22988     22987     22986     22998     22988     22986     22998
     22981     22989     22990     22981     22989     22991     22981     22989     22992
     22990     22989     22991     22990     22989     22992     22991     22989     22992
     22989     22992     22993     22992     22993     22994     22992     22993     22995
     22994     22993     22995     22993     22995     22996     22993     22995     22997
     22993     22995     23042     22996     22995     22997     22996     22995     23042
     22997     22995     23042     22986     22998     22999     22986     22998     23000
     22986     22998     23001     22999     22998     23000     22999     22998     23001
     23000     22998     23001     22998     23001     23002     22998     23001     23003
     22998     23001     23004     23002     23001     23003     23002     23001     23004
     23003     23001     23004     23001     23004     23005     23001     23004     23006
     23001     23004     23007     23005     23004     23006     23005     23004     23007
     23006     23004     23007     23004     23007     23008     23004     23007     23009
     23004     23007     23010     23008     23007     23009     23008     23007     23010
     23009     23007     23010     23007     23010     23011     23007     23010     23012
     23007     23010     23013     23011     23010     23012     23011     23010     23013
     23012     23010     23013     23010     23013     23014     23010     23013     23015
     23010     23013     23016     23014     23013     23015     23014     23013     23016
     23015     23013     23016     23013     23016     23017     23013     23016     23018
     23013     23016     23021     23017     23016     23018     23017     23016     23021
     23018     23016     23021     23016     23018     23019     23016     23018     23020
     23016     23018     23021     23019     23018     23020     23019     23018     23021
     23020     23018     23021     23016     23021     23018     23016     23021     23022
     23016     23021     23023     23018     23021     23022     23018     23021     23023
     23022     23021     23023     23021     23023     23024     23021     23023     23025
     23021     23023     23026     23024     23023     23025     23024     23023     23026
     23025     23023     23026     23023     23026     23027     23023     23026     23028
     23023     23026     23029     23027     23026     23028     23027     23026     23029
     23028     23026     23029     23026     23029     23030     23026     23029     23031
     23026     23029     23032     23030     23029     23031     23030     23029     23032
     23031     23029     23032     23029     23032     23033     23029     23032     23034
     23029     23032     23035     23033     23032     23034     23033     23032     23035
     23034     23032     23035     23032     23035     23036     23032     23035     23037
     23032     23035     23038     23036     23035     23037     23036     23035     23038
     23037     23035     23038     23035     23038     23039     23035     23038     23040
     23035     23038     23041     23039     23038     23040     23039     23038     23041
     23040     23038     23041     22995     23042     23043     22995     23042     23044
     22995     23042     23045     23043     23042     23044     23043     23042     23045
     23044     23042     23045     23042     23045     23046     23042     23045     23047
     23042     23045     23048     23046     23045     23047     23046     23045     23048
     23047     23045     23048     23045     23048     23049     23045     23048     23050
     23045     23048     23051     23049     23048     23050     23049     23048     23051
     23050     23048     23051     23048     23051     23052     23048     23051     23053
     23048     23051     23054     23052     23051     23053     23052     23051     23054
     23053     23051     23054     23051     23054     23055     23051     23054     23056
     23051     23054     23057     23055     23054     23056     23055     23054     23057
     23056     23054     23057     23054     23057     23058     23054     23057     23059
     23054     23057     23060     23058     23057     23059     23058     23057     23060
     23059     23057     23060     23057     23060     23061     23057     23060     23062
     23057     23060     23063     23061     23060     23062     23061     23060     23063
     23062     23060     23063     23060     23063     23064     23060     23063     23065
     23060     23063     23066     23064     23063     23065     23064     23063     23066
     23065     23063     23066     23063     23066     23067     23063     23066     23068
     23063     23066     23069     23067     23066     23068     23067     23066     23069
     23068     23066     23069     23066     23069     23070     23066     23069     23071
     23066     23069     23072     23070     23069     23071     23070     23069     23072
     23071     23069     23072     23069     23072     23073     23069     23072     23074
     23069     23072     23075     23073     23072     23074     23073     23072     23075
     23074     23072     23075     23072     23075     23076     23072     23075     23077
     23072     23075     23078     23076     23075     23077     23076     23075     23078
     23077     23075     23078     23075     23078     23079     23075     23078     23080
     23075     23078     23081     23079     23078     23080     23079     23078     23081
     23080     23078     23081     23078     23081     23082     23078     23081     23083
     23078     23081     23084     23082     23081     23083     23082     23081     23084
     23083     23081     23084     23086     23085     23087     23086     23085     23088
     23086     23085     23089     23087     23085     23088     23087     23085     23089
     23088     23085     23089     23085     23089     23090     23085     23089     23091
     23085     23089     23092     23090     23089     23091     23090     23089     23092
     23091     23089     23092     23089     23092     23093     23089     23092     23094
     23089     23092     23099     23093     23092     23094     23093     23092     23099
     23094     23092     23099     23096     23095     23097     23096     23095     23098
     23096     23095     23099     23097     23095     23098     23097     23095     23099
     23098     23095     23099     23095     23098     23100     23092     23099     23095
     23098     23100     23101     23098     23100     23102     23098     23100     23103
     23101     23100     23102     23101     23100     23103     23102     23100     23103
     23100     23103     23104     23100     23103     23105     23100     23103     23111
     23104     23103     23105     23104     23103     23111     23105     23103     23111
     23103     23105     23106     23105     23106     23107     23105     23106     23108
     23107     23106     23108     23106     23108     23109     23106     23108     23110
     23106     23108     23120     23109     23108     23110     23109     23108     23120
     23110     23108     23120     23103     23111     23112     23103     23111     23113
     23103     23111     23114     23112     23111     23113     23112     23111     23114
     23113     23111     23114     23111     23114     23115     23114     23115     23116
     23114     23115     23117     23116     23115     23117     23115     23117     23118
     23115     23117     23119     23115     23117     23167     23118     23117     23119
     23118     23117     23167     23119     23117     23167     23108     23120     23121
     23108     23120     23122     23108     23120     23123     23121     23120     23122
     23121     23120     23123     23122     23120     23123     23120     23123     23124
     23120     23123     23125     23120     23123     23126     23124     23123     23125
     23124     23123     23126     23125     23123     23126     23123     23126     23127
     23123     23126     23128     23123     23126     23129     23127     23126     23128
     23127     23126     23129     23128     23126     23129     23126     23129     23130
     23126     23129     23131     23126     23129     23132     23130     23129     23131
     23130     23129     23132     23131     23129     23132     23129     23132     23133
     23129     23132     23134     23129     23132     23135     23133     23132     23134
     23133     23132     23135     23134     23132     23135     23132     23135     23136
     23132     23135     23137     23132     23135     23138     23136     23135     23137
     23136     23135     23138     23137     23135     23138     23135     23138     23139
     23135     23138     23140     23139     23138     23140     23138     23140     23141
     23138     23140     23142     23141     23140     23142     23140     23142     23143
     23140     23142     23144     23140     23142     23145     23143     23142     23144
     23143     23142     23145     23144     23142     23145     23142     23145     23146
     23142     23145     23147     23142     23145     23148     23146     23145     23147
     23146     23145     23148     23147     23145     23148     23145     23148     23149
     23145     23148     23150     23145     23148     23151     23149     23148     23150
     23149     23148     23151     23150     23148     23151     23148     23151     23152
     23148     23151     23153     23148     23151     23154     23152     23151     23153
     23152     23151     23154     23153     23151     23154     23151     23154     23155
     23151     23154     23156     23151     23154     23157     23155     23154     23156
     23155     23154     23157     23156     23154     23157     23154     23157     23158
     23154     23157     23159     23154     23157     23160     23158     23157     23159
     23158     23157     23160     23159     23157     23160     23157     23160     23161
     23157     23160     23162     23157     23160     23163     23161     23160     23162
     23161     23160     23163     23162     23160     23163     23160     23163     23164
     23160     23163     23165     23160     23163     23166     23164     23163     23165
     23164     23163     23166     23165     23163     23166     23117     23167     23168
     23117     23167     23169     23117     23167     23170     23168     23167     23169
     23168     23167     23170     23169     23167     23170     23167     23170     23171
     23167     23170     23172     23167     23170     23173     23171     23170     23172
     23171     23170     23173     23172     23170     23173     23170     23173     23174
     23170     23173     23175     23170     23173     23176     23174     23173     23175
     23174     23173     23176     23175     23173     23176     23173     23176     23177
     23173     23176     23178     23173     23176     23179     23177     23176     23178
     23177     23176     23179     23178     23176     23179     23176     23179     23180
     23176     23179     23181     23176     23179     23182     23180     23179     23181
     23180     23179     23182     23181     23179     23182     23179     23182     23183
     23179     23182     23184     23179     23182     23185     23183     23182     23184
     23183     23182     23185     23184     23182     23185     23182     23185     23186
     23182     23185     23187     23182     23185     23188     23186     23185     23187
     23186     23185     23188     23187     23185     23188     23185     23188     23189
     23185     23188     23190     23185     23188     23191     23189     23188     23190
     23189     23188     23191     23190     23188     23191     23188     23191     23192
     23188     23191     23193     23188     23191     23194     23192     23191     23193
     23192     23191     23194     23193     23191     23194     23191     23194     23195
     23191     23194     23196     23191     23194     23197     23195     23194     23196
     23195     23194     23197     23196     23194     23197     23194     23197     23198
     23194     23197     23199     23194     23197     23200     23198     23197     23199
     23198     23197     23200     23199     23197     23200     23197     23200     23201
     23197     23200     23202     23197     23200     23203     23201     23200     23202
     23201     23200     23203     23202     23200     23203     23200     23203     23204
     23200     23203     23205     23200     23203     23206     23204     23203     23205
     23204     23203     23206     23205     23203     23206     23203     23206     23207
     23203     23206     23208     23203     23206     23209     23207     23206     23208
     23207     23206     23209     23208     23206     23209     23211     23210     23212
     23211     23210     23213     23211     23210     23214     23212     23210     23213
     23212     23210     23214     23213     23210     23214     23210     23214     23215
     23210     23214     23216     23210     23214     23217     23215     23214     23216
     23215     23214     23217     23216     23214     23217     23214     23217     23218
     23214     23217     23219     23214     23217     23224     23218     23217     23219
     23218     23217     23224     23219     23217     23224     23221     23220     23222
     23221     23220     23223     23221     23220     23224     23222     23220     23223
     23222     23220     23224     23223     23220     23224     23220     23223     23225
     23217     23224     23220     23223     23225     23226     23223     23225     23227
     23223     23225     23228     23226     23225     23227     23226     23225     23228
     23227     23225     23228     23225     23228     23229     23225     23228     23230
     23225     23228     23236     23229     23228     23230     23229     23228     23236
     23230     23228     23236     23228     23230     23231     23230     23231     23232
     23230     23231     23233     23232     23231     23233     23231     23233     23234
     23231     23233     23235     23231     23233     23245     23234     23233     23235
     23234     23233     23245     23235     23233     23245     23228     23236     23237
     23228     23236     23238     23228     23236     23239     23237     23236     23238
     23237     23236     23239     23238     23236     23239     23236     23239     23240
     23239     23240     23241     23239     23240     23242     23241     23240     23242
     23240     23242     23243     23240     23242     23244     23240     23242     23289
     23243     23242     23244     23243     23242     23289     23244     23242     23289
     23233     23245     23246     23233     23245     23247     23233     23245     23248
     23246     23245     23247     23246     23245     23248     23247     23245     23248
     23245     23248     23249     23245     23248     23250     23245     23248     23251
     23249     23248     23250     23249     23248     23251     23250     23248     23251
     23248     23251     23252     23248     23251     23253     23248     23251     23254
     23252     23251     23253     23252     23251     23254     23253     23251     23254
     23251     23254     23255     23251     23254     23256     23251     23254     23257
     23255     23254     23256     23255     23254     23257     23256     23254     23257
     23254     23257     23258     23254     23257     23259     23254     23257     23260
     23258     23257     23259     23258     23257     23260     23259     23257     23260
     23257     23260     23261     23257     23260     23262     23257     23260     23263
     23261     23260     23262     23261     23260     23263     23262     23260     23263
     23260     23263     23264     23260     23263     23265     23260     23263     23268
     23264     23263     23265     23264     23263     23268     23265     23263     23268
     23263     23265     23266     23263     23265     23267     23263     23265     23268
     23266     23265     23267     23266     23265     23268     23267     23265     23268
     23263     23268     23265     23263     23268     23269     23263     23268     23270
     23265     23268     23269     23265     23268     23270     23269     23268     23270
     23268     23270     23271     23268     23270     23272     23268     23270     23273
     23271     23270     23272     23271     23270     23273     23272     23270     23273
     23270     23273     23274     23270     23273     23275     23270     23273     23276
     23274     23273     23275     23274     23273     23276     23275     23273     23276
     23273     23276     23277     23273     23276     23278     23273     23276     23279
     23277     23276     23278     23277     23276     23279     23278     23276     23279
     23276     23279     23280     23276     23279     23281     23276     23279     23282
     23280     23279     23281     23280     23279     23282     23281     23279     23282
     23279     23282     23283     23279     23282     23284     23279     23282     23285
     23283     23282     23284     23283     23282     23285     23284     23282     23285
     23282     23285     23286     23282     23285     23287     23282     23285     23288
     23286     23285     23287     23286     23285     23288     23287     23285     23288
     23242     23289     23290     23242     23289     23291     23242     23289     23292
     23290     23289     23291     23290     23289     23292     23291     23289     23292
     23289     23292     23293     23289     23292     23294     23289     23292     23295
     23293     23292     23294     23293     23292     23295     23294     23292     23295
     23292     23295     23296     23292     23295     23297     23292     23295     23298
     23296     23295     23297     23296     23295     23298     23297     23295     23298
     23295     23298     23299     23295     23298     23300     23295     23298     23301
     23299     23298     23300     23299     23298     23301     23300     23298     23301
     23298     23301     23302     23298     23301     23303     23298     23301     23304
     23302     23301     23303     23302     23301     23304     23303     23301     23304
     23301     23304     23305     23301     23304     23306     23301     23304     23307
     23305     23304     23306     23305     23304     23307     23306     23304     23307
     23304     23307     23308     23304     23307     23309     23304     23307     23310
     23308     23307     23309     23308     23307     23310     23309     23307     23310
     23307     23310     23311     23307     23310     23312     23307     23310     23313
     23311     23310     23312     23311     23310     23313     23312     23310     23313
     23310     23313     23314     23310     23313     23315     23310     23313     23316
     23314     23313     23315     23314     23313     23316     23315     23313     23316
     23313     23316     23317     23313     23316     23318     23313     23316     23319
     23317     23316     23318     23317     23316     23319     23318     23316     23319
     23316     23319     23320     23316     23319     23321     23316     23319     23322
     23320     23319     23321     23320     23319     23322     23321     23319     23322
     23319     23322     23323     23319     23322     23324     23319     23322     23325
     23323     23322     23324     23323     23322     23325     23324     23322     23325
     23322     23325     23326     23322     23325     23327     23322     23325     23328
     23326     23325     23327     23326     23325     23328     23327     23325     23328
     23325     23328     23329     23325     23328     23330     23325     23328     23331
     23329     23328     23330     23329     23328     23331     23330     23328     23331
     23333     23332     23334     23333     23332     23335     23333     23332     23336
     23334     23332     23335     23334     23332     23336     23335     23332     23336
     23332     23336     23337     23332     23336     23338     23332     23336     23339
     23337     23336     23338     23337     23336     23339     23338     23336     23339
     23336     23339     23340     23336     23339     23341     23336     23339     23346
     23340     23339     23341     23340     23339     23346     23341     23339     23346
     23343     23342     23344     23343     23342     23345     23343     23342     23346
     23344     23342     23345     23344     23342     23346     23345     23342     23346
     23342     23345     23347     23339     23346     23342     23345     23347     23348
     23345     23347     23349     23345     23347     23350     23348     23347     23349
     23348     23347     23350     23349     23347     23350     23347     23350     23351
     23347     23350     23352     23347     23350     23358     23351     23350     23352
     23351     23350     23358     23352     23350     23358     23350     23352     23353
     23352     23353     23354     23352     23353     23355     23354     23353     23355
     23353     23355     23356     23353     23355     23357     23353     23355     23367
     23356     23355     23357     23356     23355     23367     23357     23355     23367
     23350     23358     23359     23350     23358     23360     23350     23358     23361
     23359     23358     23360     23359     23358     23361     23360     23358     23361
     23358     23361     23362     23361     23362     23363     23361     23362     23364
     23363     23362     23364     23362     23364     23365     23362     23364     23366
     23362     23364     23411     23365     23364     23366     23365     23364     23411
     23366     23364     23411     23355     23367     23368     23355     23367     23369
     23355     23367     23370     23368     23367     23369     23368     23367     23370
     23369     23367     23370     23367     23370     23371     23367     23370     23372
     23367     23370     23373     23371     23370     23372     23371     23370     23373
     23372     23370     23373     23370     23373     23374     23370     23373     23375
     23370     23373     23376     23374     23373     23375     23374     23373     23376
     23375     23373     23376     23373     23376     23377     23373     23376     23378
     23373     23376     23379     23377     23376     23378     23377     23376     23379
     23378     23376     23379     23376     23379     23380     23376     23379     23381
     23376     23379     23382     23380     23379     23381     23380     23379     23382
     23381     23379     23382     23379     23382     23383     23379     23382     23384
     23379     23382     23385     23383     23382     23384     23383     23382     23385
     23384     23382     23385     23382     23385     23386     23382     23385     23387
     23382     23385     23390     23386     23385     23387     23386     23385     23390
     23387     23385     23390     23385     23387     23388     23385     23387     23389
     23385     23387     23390     23388     23387     23389     23388     23387     23390
     23389     23387     23390     23385     23390     23387     23385     23390     23391
     23385     23390     23392     23387     23390     23391     23387     23390     23392
     23391     23390     23392     23390     23392     23393     23390     23392     23394
     23390     23392     23395     23393     23392     23394     23393     23392     23395
     23394     23392     23395     23392     23395     23396     23392     23395     23397
     23392     23395     23398     23396     23395     23397     23396     23395     23398
     23397     23395     23398     23395     23398     23399     23395     23398     23400
     23395     23398     23401     23399     23398     23400     23399     23398     23401
     23400     23398     23401     23398     23401     23402     23398     23401     23403
     23398     23401     23404     23402     23401     23403     23402     23401     23404
     23403     23401     23404     23401     23404     23405     23401     23404     23406
     23401     23404     23407     23405     23404     23406     23405     23404     23407
     23406     23404     23407     23404     23407     23408     23404     23407     23409
     23404     23407     23410     23408     23407     23409     23408     23407     23410
     23409     23407     23410     23364     23411     23412     23364     23411     23413
     23364     23411     23414     23412     23411     23413     23412     23411     23414
     23413     23411     23414     23411     23414     23415     23411     23414     23416
     23411     23414     23417     23415     23414     23416     23415     23414     23417
     23416     23414     23417     23414     23417     23418     23414     23417     23419
     23414     23417     23420     23418     23417     23419     23418     23417     23420
     23419     23417     23420     23417     23420     23421     23417     23420     23422
     23417     23420     23423     23421     23420     23422     23421     23420     23423
     23422     23420     23423     23420     23423     23424     23420     23423     23425
     23420     23423     23426     23424     23423     23425     23424     23423     23426
     23425     23423     23426     23423     23426     23427     23423     23426     23428
     23423     23426     23429     23427     23426     23428     23427     23426     23429
     23428     23426     23429     23426     23429     23430     23426     23429     23431
     23426     23429     23432     23430     23429     23431     23430     23429     23432
     23431     23429     23432     23429     23432     23433     23429     23432     23434
     23429     23432     23435     23433     23432     23434     23433     23432     23435
     23434     23432     23435     23432     23435     23436     23432     23435     23437
     23432     23435     23438     23436     23435     23437     23436     23435     23438
     23437     23435     23438     23435     23438     23439     23435     23438     23440
     23435     23438     23441     23439     23438     23440     23439     23438     23441
     23440     23438     23441     23438     23441     23442     23438     23441     23443
     23438     23441     23444     23442     23441     23443     23442     23441     23444
     23443     23441     23444     23441     23444     23445     23441     23444     23446
     23441     23444     23447     23445     23444     23446     23445     23444     23447
     23446     23444     23447     23444     23447     23448     23444     23447     23449
     23444     23447     23450     23448     23447     23449     23448     23447     23450
     23449     23447     23450     23447     23450     23451     23447     23450     23452
     23447     23450     23453     23451     23450     23452     23451     23450     23453
     23452     23450     23453     23455     23454     23456     23455     23454     23457
     23455     23454     23458     23456     23454     23457     23456     23454     23458
     23457     23454     23458     23454     23458     23459     23454     23458     23460
     23454     23458     23461     23459     23458     23460     23459     23458     23461
     23460     23458     23461     23458     23461     23462     23458     23461     23463
     23458     23461     23468     23462     23461     23463     23462     23461     23468
     23463     23461     23468     23465     23464     23466     23465     23464     23467
     23465     23464     23468     23466     23464     23467     23466     23464     23468
     23467     23464     23468     23464     23467     23469     23461     23468     23464
     23467     23469     23470     23467     23469     23471     23467     23469     23472
     23470     23469     23471     23470     23469     23472     23471     23469     23472
     23469     23472     23473     23469     23472     23474     23469     23472     23480
     23473     23472     23474     23473     23472     23480     23474     23472     23480
     23472     23474     23475     23474     23475     23476     23474     23475     23477
     23476     23475     23477     23475     23477     23478     23475     23477     23479
     23475     23477     23489     23478     23477     23479     23478     23477     23489
     23479     23477     23489     23472     23480     23481     23472     23480     23482
     23472     23480     23483     23481     23480     23482     23481     23480     23483
     23482     23480     23483     23480     23483     23484     23483     23484     23485
     23483     23484     23486     23485     23484     23486     23484     23486     23487
     23484     23486     23488     23484     23486     23533     23487     23486     23488
     23487     23486     23533     23488     23486     23533     23477     23489     23490
     23477     23489     23491     23477     23489     23492     23490     23489     23491
     23490     23489     23492     23491     23489     23492     23489     23492     23493
     23489     23492     23494     23489     23492     23495     23493     23492     23494
     23493     23492     23495     23494     23492     23495     23492     23495     23496
     23492     23495     23497     23492     23495     23498     23496     23495     23497
     23496     23495     23498     23497     23495     23498     23495     23498     23499
     23495     23498     23500     23495     23498     23501     23499     23498     23500
     23499     23498     23501     23500     23498     23501     23498     23501     23502
     23498     23501     23503     23498     23501     23504     23502     23501     23503
     23502     23501     23504     23503     23501     23504     23501     23504     23505
     23501     23504     23506     23501     23504     23507     23505     23504     23506
     23505     23504     23507     23506     23504     23507     23504     23507     23508
     23504     23507     23509     23504     23507     23512     23508     23507     23509
     23508     23507     23512     23509     23507     23512     23507     23509     23510
     23507     23509     23511     23507     23509     23512     23510     23509     23511
     23510     23509     23512     23511     23509     23512     23507     23512     23509
     23507     23512     23513     23507     23512     23514     23509     23512     23513
     23509     23512     23514     23513     23512     23514     23512     23514     23515
     23512     23514     23516     23512     23514     23517     23515     23514     23516
     23515     23514     23517     23516     23514     23517     23514     23517     23518
     23514     23517     23519     23514     23517     23520     23518     23517     23519
     23518     23517     23520     23519     23517     23520     23517     23520     23521
     23517     23520     23522     23517     23520     23523     23521     23520     23522
     23521     23520     23523     23522     23520     23523     23520     23523     23524
     23520     23523     23525     23520     23523     23526     23524     23523     23525
     23524     23523     23526     23525     23523     23526     23523     23526     23527
     23523     23526     23528     23523     23526     23529     23527     23526     23528
     23527     23526     23529     23528     23526     23529     23526     23529     23530
     23526     23529     23531     23526     23529     23532     23530     23529     23531
     23530     23529     23532     23531     23529     23532     23486     23533     23534
     23486     23533     23535     23486     23533     23536     23534     23533     23535
     23534     23533     23536     23535     23533     23536     23533     23536     23537
     23533     23536     23538     23533     23536     23539     23537     23536     23538
     23537     23536     23539     23538     23536     23539     23536     23539     23540
     23536     23539     23541     23536     23539     23542     23540     23539     23541
     23540     23539     23542     23541     23539     23542     23539     23542     23543
     23539     23542     23544     23539     23542     23545     23543     23542     23544
     23543     23542     23545     23544     23542     23545     23542     23545     23546
     23542     23545     23547     23542     23545     23548     23546     23545     23547
     23546     23545     23548     23547     23545     23548     23545     23548     23549
     23545     23548     23550     23545     23548     23551     23549     23548     23550
     23549     23548     23551     23550     23548     23551     23548     23551     23552
     23548     23551     23553     23548     23551     23554     23552     23551     23553
     23552     23551     23554     23553     23551     23554     23551     23554     23555
     23551     23554     23556     23551     23554     23557     23555     23554     23556
     23555     23554     23557     23556     23554     23557     23554     23557     23558
     23554     23557     23559     23554     23557     23560     23558     23557     23559
     23558     23557     23560     23559     23557     23560     23557     23560     23561
     23557     23560     23562     23557     23560     23563     23561     23560     23562
     23561     23560     23563     23562     23560     23563     23560     23563     23564
     23560     23563     23565     23560     23563     23566     23564     23563     23565
     23564     23563     23566     23565     23563     23566     23563     23566     23567
     23563     23566     23568     23563     23566     23569     23567     23566     23568
     23567     23566     23569     23568     23566     23569     23566     23569     23570
     23566     23569     23571     23566     23569     23572     23570     23569     23571
     23570     23569     23572     23571     23569     23572     23569     23572     23573
     23569     23572     23574     23569     23572     23575     23573     23572     23574
     23573     23572     23575     23574     23572     23575     23577     23576     23578
     23577     23576     23579     23577     23576     23580     23578     23576     23579
     23578     23576     23580     23579     23576     23580     23576     23580     23581
     23576     23580     23582     23576     23580     23583     23581     23580     23582
     23581     23580     23583     23582     23580     23583     23580     23583     23584
     23580     23583     23585     23580     23583     23590     23584     23583     23585
     23584     23583     23590     23585     23583     23590     23587     23586     23588
     23587     23586     23589     23587     23586     23590     23588     23586     23589
     23588     23586     23590     23589     23586     23590     23586     23589     23591
     23583     23590     23586     23589     23591     23592     23589     23591     23593
     23589     23591     23594     23592     23591     23593     23592     23591     23594
     23593     23591     23594     23591     23594     23595     23591     23594     23596
     23591     23594     23602     23595     23594     23596     23595     23594     23602
     23596     23594     23602     23594     23596     23597     23596     23597     23598
     23596     23597     23599     23598     23597     23599     23597     23599     23600
     23597     23599     23601     23597     23599     23611     23600     23599     23601
     23600     23599     23611     23601     23599     23611     23594     23602     23603
     23594     23602     23604     23594     23602     23605     23603     23602     23604
     23603     23602     23605     23604     23602     23605     23602     23605     23606
     23605     23606     23607     23605     23606     23608     23607     23606     23608
     23606     23608     23609     23606     23608     23610     23606     23608     23658
     23609     23608     23610     23609     23608     23658     23610     23608     23658
     23599     23611     23612     23599     23611     23613     23599     23611     23614
     23612     23611     23613     23612     23611     23614     23613     23611     23614
     23611     23614     23615     23611     23614     23616     23611     23614     23617
     23615     23614     23616     23615     23614     23617     23616     23614     23617
     23614     23617     23618     23614     23617     23619     23614     23617     23620
     23618     23617     23619     23618     23617     23620     23619     23617     23620
     23617     23620     23621     23617     23620     23622     23617     23620     23623
     23621     23620     23622     23621     23620     23623     23622     23620     23623
     23620     23623     23624     23620     23623     23625     23620     23623     23626
     23624     23623     23625     23624     23623     23626     23625     23623     23626
     23623     23626     23627     23623     23626     23628     23623     23626     23629
     23627     23626     23628     23627     23626     23629     23628     23626     23629
     23626     23629     23630     23626     23629     23631     23630     23629     23631
     23629     23631     23632     23629     23631     23633     23632     23631     23633
     23631     23633     23634     23631     23633     23635     23631     23633     23636
     23634     23633     23635     23634     23633     23636     23635     23633     23636
     23633     23636     23637     23633     23636     23638     23633     23636     23639
     23637     23636     23638     23637     23636     23639     23638     23636     23639
     23636     23639     23640     23636     23639     23641     23636     23639     23642
     23640     23639     23641     23640     23639     23642     23641     23639     23642
     23639     23642     23643     23639     23642     23644     23639     23642     23645
     23643     23642     23644     23643     23642     23645     23644     23642     23645
     23642     23645     23646     23642     23645     23647     23642     23645     23648
     23646     23645     23647     23646     23645     23648     23647     23645     23648
     23645     23648     23649     23645     23648     23650     23645     23648     23651
     23649     23648     23650     23649     23648     23651     23650     23648     23651
     23648     23651     23652     23648     23651     23653     23648     23651     23654
     23652     23651     23653     23652     23651     23654     23653     23651     23654
     23651     23654     23655     23651     23654     23656     23651     23654     23657
     23655     23654     23656     23655     23654     23657     23656     23654     23657
     23608     23658     23659     23608     23658     23660     23608     23658     23661
     23659     23658     23660     23659     23658     23661     23660     23658     23661
     23658     23661     23662     23658     23661     23663     23658     23661     23664
     23662     23661     23663     23662     23661     23664     23663     23661     23664
     23661     23664     23665     23661     23664     23666     23661     23664     23667
     23665     23664     23666     23665     23664     23667     23666     23664     23667
     23664     23667     23668     23664     23667     23669     23664     23667     23670
     23668     23667     23669     23668     23667     23670     23669     23667     23670
     23667     23670     23671     23667     23670     23672     23667     23670     23673
     23671     23670     23672     23671     23670     23673     23672     23670     23673
     23670     23673     23674     23670     23673     23675     23670     23673     23676
     23674     23673     23675     23674     23673     23676     23675     23673     23676
     23673     23676     23677     23673     23676     23678     23673     23676     23679
     23677     23676     23678     23677     23676     23679     23678     23676     23679
     23676     23679     23680     23676     23679     23681     23676     23679     23682
     23680     23679     23681     23680     23679     23682     23681     23679     23682
     23679     23682     23683     23679     23682     23684     23679     23682     23685
     23683     23682     23684     23683     23682     23685     23684     23682     23685
     23682     23685     23686     23682     23685     23687     23682     23685     23688
     23686     23685     23687     23686     23685     23688     23687     23685     23688
     23685     23688     23689     23685     23688     23690     23685     23688     23691
     23689     23688     23690     23689     23688     23691     23690     23688     23691
     23688     23691     23692     23688     23691     23693     23688     23691     23694
     23692     23691     23693     23692     23691     23694     23693     23691     23694
     23691     23694     23695     23691     23694     23696     23691     23694     23697
     23695     23694     23696     23695     23694     23697     23696     23694     23697
     23694     23697     23698     23694     23697     23699     23694     23697     23700
     23698     23697     23699     23698     23697     23700     23699     23697     23700
     23702     23701     23703     23702     23701     23704     23702     23701     23706
     23703     23701     23704     23703     23701     23706     23704     23701     23706
     23701     23704     23705     23701     23706     23707     23701     23706     23708
     23701     23706     23710     23707     23706     23708     23707     23706     23710
     23708     23706     23710     23706     23708     23709     23706     23710     23711
     23706     23710     23712     23706     23710     23717     23711     23710     23712
     23711     23710     23717     23712     23710     23717     23714     23713     23715
     23714     23713     23716     23714     23713     23717     23715     23713     23716
     23715     23713     23717     23716     23713     23717     23713     23716     23718
     23710     23717     23713     23716     23718     23719     23716     23718     23720
     23716     23718     23721     23719     23718     23720     23719     23718     23721
     23720     23718     23721     23718     23721     23722     23718     23721     23723
     23718     23721     23729     23722     23721     23723     23722     23721     23729
     23723     23721     23729     23721     23723     23724     23723     23724     23725
     23723     23724     23726     23725     23724     23726     23724     23726     23727
     23724     23726     23728     23724     23726     23738     23727     23726     23728
     23727     23726     23738     23728     23726     23738     23721     23729     23730
     23721     23729     23731     23721     23729     23732     23730     23729     23731
     23730     23729     23732     23731     23729     23732     23729     23732     23733
     23732     23733     23734     23732     23733     23735     23734     23733     23735
     23733     23735     23736     23733     23735     23737     23733     23735     23779
     23736     23735     23737     23736     23735     23779     23737     23735     23779
     23726     23738     23739     23726     23738     23740     23726     23738     23741
     23739     23738     23740     23739     23738     23741     23740     23738     23741
     23738     23741     23742     23738     23741     23743     23738     23741     23744
     23742     23741     23743     23742     23741     23744     23743     23741     23744
     23741     23744     23745     23741     23744     23746     23741     23744     23747
     23745     23744     23746     23745     23744     23747     23746     23744     23747
     23744     23747     23748     23744     23747     23749     23744     23747     23750
     23748     23747     23749     23748     23747     23750     23749     23747     23750
     23747     23750     23751     23747     23750     23752     23747     23750     23753
     23751     23750     23752     23751     23750     23753     23752     23750     23753
     23750     23753     23754     23750     23753     23755     23750     23753     23756
     23754     23753     23755     23754     23753     23756     23755     23753     23756
     23753     23756     23757     23753     23756     23758     23757     23756     23758
     23756     23758     23759     23756     23758     23760     23759     23758     23760
     23758     23760     23761     23758     23760     23762     23758     23760     23763
     23761     23760     23762     23761     23760     23763     23762     23760     23763
     23760     23763     23764     23760     23763     23765     23760     23763     23766
     23764     23763     23765     23764     23763     23766     23765     23763     23766
     23763     23766     23767     23763     23766     23768     23763     23766     23769
     23767     23766     23768     23767     23766     23769     23768     23766     23769
     23766     23769     23770     23766     23769     23771     23766     23769     23772
     23770     23769     23771     23770     23769     23772     23771     23769     23772
     23769     23772     23773     23769     23772     23774     23769     23772     23775
     23773     23772     23774     23773     23772     23775     23774     23772     23775
     23772     23775     23776     23772     23775     23777     23772     23775     23778
     23776     23775     23777     23776     23775     23778     23777     23775     23778
     23735     23779     23780     23735     23779     23781     23735     23779     23782
     23780     23779     23781     23780     23779     23782     23781     23779     23782
     23779     23782     23783     23779     23782     23784     23779     23782     23785
     23783     23782     23784     23783     23782     23785     23784     23782     23785
     23782     23785     23786     23782     23785     23787     23782     23785     23788
     23786     23785     23787     23786     23785     23788     23787     23785     23788
     23785     23788     23789     23785     23788     23790     23785     23788     23791
     23789     23788     23790     23789     23788     23791     23790     23788     23791
     23788     23791     23792     23788     23791     23793     23788     23791     23794
     23792     23791     23793     23792     23791     23794     23793     23791     23794
     23791     23794     23795     23791     23794     23796     23791     23794     23797
     23795     23794     23796     23795     23794     23797     23796     23794     23797
     23794     23797     23798     23794     23797     23799     23794     23797     23800
     23798     23797     23799     23798     23797     23800     23799     23797     23800
     23797     23800     23801     23797     23800     23802     23797     23800     23803
     23801     23800     23802     23801     23800     23803     23802     23800     23803
     23800     23803     23804     23800     23803     23805     23800     23803     23806
     23804     23803     23805     23804     23803     23806     23805     23803     23806
     23803     23806     23807     23803     23806     23808     23803     23806     23809
     23807     23806     23808     23807     23806     23809     23808     23806     23809
     23806     23809     23810     23806     23809     23811     23806     23809     23812
     23810     23809     23811     23810     23809     23812     23811     23809     23812
     23809     23812     23813     23809     23812     23814     23809     23812     23815
     23813     23812     23814     23813     23812     23815     23814     23812     23815
     23812     23815     23816     23812     23815     23817     23812     23815     23818
     23816     23815     23817     23816     23815     23818     23817     23815     23818
     23815     23818     23819     23815     23818     23820     23815     23818     23821
     23819     23818     23820     23819     23818     23821     23820     23818     23821
     23823     23822     23824     23823     23822     23825     23823     23822     23826
     23824     23822     23825     23824     23822     23826     23825     23822     23826
     23822     23826     23827     23822     23826     23828     23822     23826     23829
     23827     23826     23828     23827     23826     23829     23828     23826     23829
     23826     23829     23830     23826     23829     23831     23826     23829     23836
     23830     23829     23831     23830     23829     23836     23831     23829     23836
     23833     23832     23834     23833     23832     23835     23833     23832     23836
     23834     23832     23835     23834     23832     23836     23835     23832     23836
     23832     23835     23837     23829     23836     23832     23835     23837     23838
     23835     23837     23839     23835     23837     23840     23838     23837     23839
     23838     23837     23840     23839     23837     23840     23837     23840     23841
     23837     23840     23842     23837     23840     23848     23841     23840     23842
     23841     23840     23848     23842     23840     23848     23840     23842     23843
     23842     23843     23844     23842     23843     23845     23844     23843     23845
     23843     23845     23846     23843     23845     23847     23843     23845     23857
     23846     23845     23847     23846     23845     23857     23847     23845     23857
     23840     23848     23849     23840     23848     23850     23840     23848     23851
     23849     23848     23850     23849     23848     23851     23850     23848     23851
     23848     23851     23852     23851     23852     23853     23851     23852     23854
     23853     23852     23854     23852     23854     23855     23852     23854     23856
     23852     23854     23901     23855     23854     23856     23855     23854     23901
     23856     23854     23901     23845     23857     23858     23845     23857     23859
     23845     23857     23860     23858     23857     23859     23858     23857     23860
     23859     23857     23860     23857     23860     23861     23857     23860     23862
     23857     23860     23863     23861     23860     23862     23861     23860     23863
     23862     23860     23863     23860     23863     23864     23860     23863     23865
     23860     23863     23866     23864     23863     23865     23864     23863     23866
     23865     23863     23866     23863     23866     23867     23863     23866     23868
     23863     23866     23869     23867     23866     23868     23867     23866     23869
     23868     23866     23869     23866     23869     23870     23866     23869     23871
     23866     23869     23872     23870     23869     23871     23870     23869     23872
     23871     23869     23872     23869     23872     23873     23869     23872     23874
     23869     23872     23875     23873     23872     23874     23873     23872     23875
     23874     23872     23875     23872     23875     23876     23872     23875     23877
     23872     23875     23880     23876     23875     23877     23876     23875     23880
     23877     23875     23880     23875     23877     23878     23875     23877     23879
     23875     23877     23880     23878     23877     23879     23878     23877     23880
     23879     23877     23880     23875     23880     23877     23875     23880     23881
     23875     23880     23882     23877     23880     23881     23877     23880     23882
     23881     23880     23882     23880     23882     23883     23880     23882     23884
     23880     23882     23885     23883     23882     23884     23883     23882     23885
     23884     23882     23885     23882     23885     23886     23882     23885     23887
     23882     23885     23888     23886     23885     23887     23886     23885     23888
     23887     23885     23888     23885     23888     23889     23885     23888     23890
     23885     23888     23891     23889     23888     23890     23889     23888     23891
     23890     23888     23891     23888     23891     23892     23888     23891     23893
     23888     23891     23894     23892     23891     23893     23892     23891     23894
     23893     23891     23894     23891     23894     23895     23891     23894     23896
     23891     23894     23897     23895     23894     23896     23895     23894     23897
     23896     23894     23897     23894     23897     23898     23894     23897     23899
     23894     23897     23900     23898     23897     23899     23898     23897     23900
     23899     23897     23900     23854     23901     23902     23854     23901     23903
     23854     23901     23904     23902     23901     23903     23902     23901     23904
     23903     23901     23904     23901     23904     23905     23901     23904     23906
     23901     23904     23907     23905     23904     23906     23905     23904     23907
     23906     23904     23907     23904     23907     23908     23904     23907     23909
     23904     23907     23910     23908     23907     23909     23908     23907     23910
     23909     23907     23910     23907     23910     23911     23907     23910     23912
     23907     23910     23913     23911     23910     23912     23911     23910     23913
     23912     23910     23913     23910     23913     23914     23910     23913     23915
     23910     23913     23916     23914     23913     23915     23914     23913     23916
     23915     23913     23916     23913     23916     23917     23913     23916     23918
     23913     23916     23919     23917     23916     23918     23917     23916     23919
     23918     23916     23919     23916     23919     23920     23916     23919     23921
     23916     23919     23922     23920     23919     23921     23920     23919     23922
     23921     23919     23922     23919     23922     23923     23919     23922     23924
     23919     23922     23925     23923     23922     23924     23923     23922     23925
     23924     23922     23925     23922     23925     23926     23922     23925     23927
     23922     23925     23928     23926     23925     23927     23926     23925     23928
     23927     23925     23928     23925     23928     23929     23925     23928     23930
     23925     23928     23931     23929     23928     23930     23929     23928     23931
     23930     23928     23931     23928     23931     23932     23928     23931     23933
     23928     23931     23934     23932     23931     23933     23932     23931     23934
     23933     23931     23934     23931     23934     23935     23931     23934     23936
     23931     23934     23937     23935     23934     23936     23935     23934     23937
     23936     23934     23937     23934     23937     23938     23934     23937     23939
     23934     23937     23940     23938     23937     23939     23938     23937     23940
     23939     23937     23940     23942     23941     23943     23942     23941     23944
     23942     23941     23945     23943     23941     23944     23943     23941     23945
     23944     23941     23945     23941     23945     23946     23941     23945     23947
     23941     23945     23948     23946     23945     23947     23946     23945     23948
     23947     23945     23948     23945     23948     23949     23945     23948     23950
     23945     23948     23955     23949     23948     23950     23949     23948     23955
     23950     23948     23955     23952     23951     23953     23952     23951     23954
     23952     23951     23955     23953     23951     23954     23953     23951     23955
     23954     23951     23955     23951     23954     23956     23948     23955     23951
     23954     23956     23957     23954     23956     23958     23954     23956     23959
     23957     23956     23958     23957     23956     23959     23958     23956     23959
     23956     23959     23960     23956     23959     23961     23956     23959     23967
     23960     23959     23961     23960     23959     23967     23961     23959     23967
     23959     23961     23962     23961     23962     23963     23961     23962     23964
     23963     23962     23964     23962     23964     23965     23962     23964     23966
     23962     23964     23976     23965     23964     23966     23965     23964     23976
     23966     23964     23976     23959     23967     23968     23959     23967     23969
     23959     23967     23970     23968     23967     23969     23968     23967     23970
     23969     23967     23970     23967     23970     23971     23970     23971     23972
     23970     23971     23973     23972     23971     23973     23971     23973     23974
     23971     23973     23975     23971     23973     24020     23974     23973     23975
     23974     23973     24020     23975     23973     24020     23964     23976     23977
     23964     23976     23978     23964     23976     23979     23977     23976     23978
     23977     23976     23979     23978     23976     23979     23976     23979     23980
     23976     23979     23981     23976     23979     23982     23980     23979     23981
     23980     23979     23982     23981     23979     23982     23979     23982     23983
     23979     23982     23984     23979     23982     23985     23983     23982     23984
     23983     23982     23985     23984     23982     23985     23982     23985     23986
     23982     23985     23987     23982     23985     23988     23986     23985     23987
     23986     23985     23988     23987     23985     23988     23985     23988     23989
     23985     23988     23990     23985     23988     23991     23989     23988     23990
     23989     23988     23991     23990     23988     23991     23988     23991     23992
     23988     23991     23993     23988     23991     23994     23992     23991     23993
     23992     23991     23994     23993     23991     23994     23991     23994     23995
     23991     23994     23996     23991     23994     23999     23995     23994     23996
     23995     23994     23999     23996     23994     23999     23994     23996     23997
     23994     23996     23998     23994     23996     23999     23997     23996     23998
     23997     23996     23999     23998     23996     23999     23994     23999     23996
     23994     23999     24000     23994     23999     24001     23996     23999     24000
     23996     23999     24001     24000     23999     24001     23999     24001     24002
     23999     24001     24003     23999     24001     24004     24002     24001     24003
     24002     24001     24004     24003     24001     24004     24001     24004     24005
     24001     24004     24006     24001     24004     24007     24005     24004     24006
     24005     24004     24007     24006     24004     24007     24004     24007     24008
     24004     24007     24009     24004     24007     24010     24008     24007     24009
     24008     24007     24010     24009     24007     24010     24007     24010     24011
     24007     24010     24012     24007     24010     24013     24011     24010     24012
     24011     24010     24013     24012     24010     24013     24010     24013     24014
     24010     24013     24015     24010     24013     24016     24014     24013     24015
     24014     24013     24016     24015     24013     24016     24013     24016     24017
     24013     24016     24018     24013     24016     24019     24017     24016     24018
     24017     24016     24019     24018     24016     24019     23973     24020     24021
     23973     24020     24022     23973     24020     24023     24021     24020     24022
     24021     24020     24023     24022     24020     24023     24020     24023     24024
     24020     24023     24025     24020     24023     24026     24024     24023     24025
     24024     24023     24026     24025     24023     24026     24023     24026     24027
     24023     24026     24028     24023     24026     24029     24027     24026     24028
     24027     24026     24029     24028     24026     24029     24026     24029     24030
     24026     24029     24031     24026     24029     24032     24030     24029     24031
     24030     24029     24032     24031     24029     24032     24029     24032     24033
     24029     24032     24034     24029     24032     24035     24033     24032     24034
     24033     24032     24035     24034     24032     24035     24032     24035     24036
     24032     24035     24037     24032     24035     24038     24036     24035     24037
     24036     24035     24038     24037     24035     24038     24035     24038     24039
     24035     24038     24040     24035     24038     24041     24039     24038     24040
     24039     24038     24041     24040     24038     24041     24038     24041     24042
     24038     24041     24043     24038     24041     24044     24042     24041     24043
     24042     24041     24044     24043     24041     24044     24041     24044     24045
     24041     24044     24046     24041     24044     24047     24045     24044     24046
     24045     24044     24047     24046     24044     24047     24044     24047     24048
     24044     24047     24049     24044     24047     24050     24048     24047     24049
     24048     24047     24050     24049     24047     24050     24047     24050     24051
     24047     24050     24052     24047     24050     24053     24051     24050     24052
     24051     24050     24053     24052     24050     24053     24050     24053     24054
     24050     24053     24055     24050     24053     24056     24054     24053     24055
     24054     24053     24056     24055     24053     24056     24053     24056     24057
     24053     24056     24058     24053     24056     24059     24057     24056     24058
     24057     24056     24059     24058     24056     24059     24056     24059     24060
     24056     24059     24061     24056     24059     24062     24060     24059     24061
     24060     24059     24062     24061     24059     24062     24064     24063     24065
     24064     24063     24066     24064     24063     24067     24065     24063     24066
     24065     24063     24067     24066     24063     24067     24063     24067     24068
     24063     24067     24069     24063     24067     24070     24068     24067     24069
     24068     24067     24070     24069     24067     24070     24067     24070     24071
     24067     24070     24072     24067     24070     24077     24071     24070     24072
     24071     24070     24077     24072     24070     24077     24074     24073     24075
     24074     24073     24076     24074     24073     24077     24075     24073     24076
     24075     24073     24077     24076     24073     24077     24073     24076     24078
     24070     24077     24073     24076     24078     24079     24076     24078     24080
     24076     24078     24081     24079     24078     24080     24079     24078     24081
     24080     24078     24081     24078     24081     24082     24078     24081     24083
     24078     24081     24089     24082     24081     24083     24082     24081     24089
     24083     24081     24089     24081     24083     24084     24083     24084     24085
     24083     24084     24086     24085     24084     24086     24084     24086     24087
     24084     24086     24088     24084     24086     24098     24087     24086     24088
     24087     24086     24098     24088     24086     24098     24081     24089     24090
     24081     24089     24091     24081     24089     24092     24090     24089     24091
     24090     24089     24092     24091     24089     24092     24089     24092     24093
     24092     24093     24094     24092     24093     24095     24094     24093     24095
     24093     24095     24096     24093     24095     24097     24093     24095     24145
     24096     24095     24097     24096     24095     24145     24097     24095     24145
     24086     24098     24099     24086     24098     24100     24086     24098     24101
     24099     24098     24100     24099     24098     24101     24100     24098     24101
     24098     24101     24102     24098     24101     24103     24098     24101     24104
     24102     24101     24103     24102     24101     24104     24103     24101     24104
     24101     24104     24105     24101     24104     24106     24101     24104     24107
     24105     24104     24106     24105     24104     24107     24106     24104     24107
     24104     24107     24108     24104     24107     24109     24104     24107     24110
     24108     24107     24109     24108     24107     24110     24109     24107     24110
     24107     24110     24111     24107     24110     24112     24107     24110     24113
     24111     24110     24112     24111     24110     24113     24112     24110     24113
     24110     24113     24114     24110     24113     24115     24110     24113     24116
     24114     24113     24115     24114     24113     24116     24115     24113     24116
     24113     24116     24117     24113     24116     24118     24117     24116     24118
     24116     24118     24119     24116     24118     24120     24119     24118     24120
     24118     24120     24121     24118     24120     24122     24118     24120     24123
     24121     24120     24122     24121     24120     24123     24122     24120     24123
     24120     24123     24124     24120     24123     24125     24120     24123     24126
     24124     24123     24125     24124     24123     24126     24125     24123     24126
     24123     24126     24127     24123     24126     24128     24123     24126     24129
     24127     24126     24128     24127     24126     24129     24128     24126     24129
     24126     24129     24130     24126     24129     24131     24126     24129     24132
     24130     24129     24131     24130     24129     24132     24131     24129     24132
     24129     24132     24133     24129     24132     24134     24129     24132     24135
     24133     24132     24134     24133     24132     24135     24134     24132     24135
     24132     24135     24136     24132     24135     24137     24132     24135     24138
     24136     24135     24137     24136     24135     24138     24137     24135     24138
     24135     24138     24139     24135     24138     24140     24135     24138     24141
     24139     24138     24140     24139     24138     24141     24140     24138     24141
     24138     24141     24142     24138     24141     24143     24138     24141     24144
     24142     24141     24143     24142     24141     24144     24143     24141     24144
     24095     24145     24146     24095     24145     24147     24095     24145     24148
     24146     24145     24147     24146     24145     24148     24147     24145     24148
     24145     24148     24149     24145     24148     24150     24145     24148     24151
     24149     24148     24150     24149     24148     24151     24150     24148     24151
     24148     24151     24152     24148     24151     24153     24148     24151     24154
     24152     24151     24153     24152     24151     24154     24153     24151     24154
     24151     24154     24155     24151     24154     24156     24151     24154     24157
     24155     24154     24156     24155     24154     24157     24156     24154     24157
     24154     24157     24158     24154     24157     24159     24154     24157     24160
     24158     24157     24159     24158     24157     24160     24159     24157     24160
     24157     24160     24161     24157     24160     24162     24157     24160     24163
     24161     24160     24162     24161     24160     24163     24162     24160     24163
     24160     24163     24164     24160     24163     24165     24160     24163     24166
     24164     24163     24165     24164     24163     24166     24165     24163     24166
     24163     24166     24167     24163     24166     24168     24163     24166     24169
     24167     24166     24168     24167     24166     24169     24168     24166     24169
     24166     24169     24170     24166     24169     24171     24166     24169     24172
     24170     24169     24171     24170     24169     24172     24171     24169     24172
     24169     24172     24173     24169     24172     24174     24169     24172     24175
     24173     24172     24174     24173     24172     24175     24174     24172     24175
     24172     24175     24176     24172     24175     24177     24172     24175     24178
     24176     24175     24177     24176     24175     24178     24177     24175     24178
     24175     24178     24179     24175     24178     24180     24175     24178     24181
     24179     24178     24180     24179     24178     24181     24180     24178     24181
     24178     24181     24182     24178     24181     24183     24178     24181     24184
     24182     24181     24183     24182     24181     24184     24183     24181     24184
     24181     24184     24185     24181     24184     24186     24181     24184     24187
     24185     24184     24186     24185     24184     24187     24186     24184     24187
     24189     24188     24190     24189     24188     24194     24189     24188     24199
     24190     24188     24194     24190     24188     24199     24194     24188     24199
     24192     24191     24193     24192     24191     24194     24192     24191     24195
     24193     24191     24194     24193     24191     24195     24194     24191     24195
     24188     24194     24191     24191     24195     24196     24195     24196     24197
     24195     24196     24198     24195     24196     24231     24197     24196     24198
     24197     24196     24231     24198     24196     24231     24188     24199     24200
     24188     24199     24201     24188     24199     24203     24200     24199     24201
     24200     24199     24203     24201     24199     24203     24199     24201     24202
     24199     24203     24204     24199     24203     24205     24199     24203     24209
     24204     24203     24205     24204     24203     24209     24205     24203     24209
     24207     24206     24208     24207     24206     24209     24207     24206     24210
     24208     24206     24209     24208     24206     24210     24209     24206     24210
     24203     24209     24206     24206     24210     24211     24210     24211     24212
     24210     24211     24213     24210     24211     24214     24212     24211     24213
     24212     24211     24214     24213     24211     24214     24211     24214     24215
     24211     24214     24216     24211     24214     24222     24215     24214     24216
     24215     24214     24222     24216     24214     24222     24214     24216     24217
     24216     24217     24218     24216     24217     24219     24218     24217     24219
     24217     24219     24220     24217     24219     24221     24217     24219     24248
     24220     24219     24221     24220     24219     24248     24221     24219     24248
     24214     24222     24223     24214     24222     24224     24214     24222     24225
     24223     24222     24224     24223     24222     24225     24224     24222     24225
     24222     24225     24226     24225     24226     24227     24225     24226     24228
     24227     24226     24228     24226     24228     24229     24226     24228     24230
     24226     24228     24295     24229     24228     24230     24229     24228     24295
     24230     24228     24295     24196     24231     24232     24196     24231     24233
     24196     24231     24239     24232     24231     24233     24232     24231     24239
     24233     24231     24239     24231     24233     24234     24233     24234     24235
     24233     24234     24236     24235     24234     24236     24234     24236     24237
     24234     24236     24238     24234     24236     24338     24237     24236     24238
     24237     24236     24338     24238     24236     24338     24231     24239     24240
     24231     24239     24241     24231     24239     24242     24240     24239     24241
     24240     24239     24242     24241     24239     24242     24239     24242     24243
     24242     24243     24244     24242     24243     24245     24244     24243     24245
     24243     24245     24246     24243     24245     24247     24243     24245     24385
     24246     24245     24247     24246     24245     24385     24247     24245     24385
     24219     24248     24249     24219     24248     24250     24219     24248     24251
     24249     24248     24250     24249     24248     24251     24250     24248     24251
     24248     24251     24252     24248     24251     24253     24248     24251     24254
     24252     24251     24253     24252     24251     24254     24253     24251     24254
     24251     24254     24255     24251     24254     24256     24251     24254     24257
     24255     24254     24256     24255     24254     24257     24256     24254     24257
     24254     24257     24258     24254     24257     24259     24254     24257     24260
     24258     24257     24259     24258     24257     24260     24259     24257     24260
     24257     24260     24261     24257     24260     24262     24257     24260     24263
     24261     24260     24262     24261     24260     24263     24262     24260     24263
     24260     24263     24264     24260     24263     24265     24260     24263     24266
     24264     24263     24265     24264     24263     24266     24265     24263     24266
     24263     24266     24267     24263     24266     24268     24263     24266     24269
     24267     24266     24268     24267     24266     24269     24268     24266     24269
     24266     24269     24270     24266     24269     24271     24266     24269     24272
     24270     24269     24271     24270     24269     24272     24271     24269     24272
     24269     24272     24273     24269     24272     24274     24273     24272     24274
     24272     24274     24275     24272     24274     24276     24275     24274     24276
     24274     24276     24277     24274     24276     24278     24274     24276     24279
     24277     24276     24278     24277     24276     24279     24278     24276     24279
     24276     24279     24280     24276     24279     24281     24276     24279     24282
     24280     24279     24281     24280     24279     24282     24281     24279     24282
     24279     24282     24283     24279     24282     24284     24279     24282     24285
     24283     24282     24284     24283     24282     24285     24284     24282     24285
     24282     24285     24286     24282     24285     24287     24282     24285     24288
     24286     24285     24287     24286     24285     24288     24287     24285     24288
     24285     24288     24289     24285     24288     24290     24285     24288     24291
     24289     24288     24290     24289     24288     24291     24290     24288     24291
     24288     24291     24292     24288     24291     24293     24288     24291     24294
     24292     24291     24293     24292     24291     24294     24293     24291     24294
     24228     24295     24296     24228     24295     24297     24228     24295     24298
     24296     24295     24297     24296     24295     24298     24297     24295     24298
     24295     24298     24299     24295     24298     24300     24295     24298     24301
     24299     24298     24300     24299     24298     24301     24300     24298     24301
     24298     24301     24302     24298     24301     24303     24298     24301     24304
     24302     24301     24303     24302     24301     24304     24303     24301     24304
     24301     24304     24305     24301     24304     24306     24301     24304     24307
     24305     24304     24306     24305     24304     24307     24306     24304     24307
     24304     24307     24308     24304     24307     24309     24304     24307     24310
     24308     24307     24309     24308     24307     24310     24309     24307     24310
     24307     24310     24311     24307     24310     24312     24307     24310     24313
     24311     24310     24312     24311     24310     24313     24312     24310     24313
     24310     24313     24314     24310     24313     24315     24310     24313     24316
     24314     24313     24315     24314     24313     24316     24315     24313     24316
     24313     24316     24317     24313     24316     24318     24313     24316     24319
     24317     24316     24318     24317     24316     24319     24318     24316     24319
     24316     24319     24320     24316     24319     24321     24316     24319     24322
     24320     24319     24321     24320     24319     24322     24321     24319     24322
     24319     24322     24323     24319     24322     24324     24319     24322     24325
     24323     24322     24324     24323     24322     24325     24324     24322     24325
     24322     24325     24326     24322     24325     24327     24322     24325     24328
     24326     24325     24327     24326     24325     24328     24327     24325     24328
     24325     24328     24329     24325     24328     24330     24325     24328     24331
     24329     24328     24330     24329     24328     24331     24330     24328     24331
     24328     24331     24332     24328     24331     24333     24328     24331     24334
     24332     24331     24333     24332     24331     24334     24333     24331     24334
     24331     24334     24335     24331     24334     24336     24331     24334     24337
     24335     24334     24336     24335     24334     24337     24336     24334     24337
     24236     24338     24339     24236     24338     24340     24236     24338     24341
     24339     24338     24340     24339     24338     24341     24340     24338     24341
     24338     24341     24342     24338     24341     24343     24338     24341     24344
     24342     24341     24343     24342     24341     24344     24343     24341     24344
     24341     24344     24345     24341     24344     24346     24341     24344     24347
     24345     24344     24346     24345     24344     24347     24346     24344     24347
     24344     24347     24348     24344     24347     24349     24344     24347     24350
     24348     24347     24349     24348     24347     24350     24349     24347     24350
     24347     24350     24351     24347     24350     24352     24347     24350     24353
     24351     24350     24352     24351     24350     24353     24352     24350     24353
     24350     24353     24354     24350     24353     24355     24350     24353     24356
     24354     24353     24355     24354     24353     24356     24355     24353     24356
     24353     24356     24357     24353     24356     24358     24353     24356     24359
     24357     24356     24358     24357     24356     24359     24358     24356     24359
     24356     24359     24360     24356     24359     24361     24356     24359     24362
     24360     24359     24361     24360     24359     24362     24361     24359     24362
     24359     24362     24363     24359     24362     24364     24363     24362     24364
     24362     24364     24365     24362     24364     24366     24365     24364     24366
     24364     24366     24367     24364     24366     24368     24364     24366     24369
     24367     24366     24368     24367     24366     24369     24368     24366     24369
     24366     24369     24370     24366     24369     24371     24366     24369     24372
     24370     24369     24371     24370     24369     24372     24371     24369     24372
     24369     24372     24373     24369     24372     24374     24369     24372     24375
     24373     24372     24374     24373     24372     24375     24374     24372     24375
     24372     24375     24376     24372     24375     24377     24372     24375     24378
     24376     24375     24377     24376     24375     24378     24377     24375     24378
     24375     24378     24379     24375     24378     24380     24375     24378     24381
     24379     24378     24380     24379     24378     24381     24380     24378     24381
     24378     24381     24382     24378     24381     24383     24378     24381     24384
     24382     24381     24383     24382     24381     24384     24383     24381     24384
     24245     24385     24386     24245     24385     24387     24245     24385     24388
     24386     24385     24387     24386     24385     24388     24387     24385     24388
     24385     24388     24389     24385     24388     24390     24385     24388     24391
     24389     24388     24390     24389     24388     24391     24390     24388     24391
     24388     24391     24392     24388     24391     24393     24388     24391     24394
     24392     24391     24393     24392     24391     24394     24393     24391     24394
     24391     24394     24395     24391     24394     24396     24391     24394     24397
     24395     24394     24396     24395     24394     24397     24396     24394     24397
     24394     24397     24398     24394     24397     24399     24394     24397     24400
     24398     24397     24399     24398     24397     24400     24399     24397     24400
     24397     24400     24401     24397     24400     24402     24397     24400     24403
     24401     24400     24402     24401     24400     24403     24402     24400     24403
     24400     24403     24404     24400     24403     24405     24400     24403     24406
     24404     24403     24405     24404     24403     24406     24405     24403     24406
     24403     24406     24407     24403     24406     24408     24403     24406     24409
     24407     24406     24408     24407     24406     24409     24408     24406     24409
     24406     24409     24410     24406     24409     24411     24406     24409     24412
     24410     24409     24411     24410     24409     24412     24411     24409     24412
     24409     24412     24413     24409     24412     24414     24409     24412     24415
     24413     24412     24414     24413     24412     24415     24414     24412     24415
     24412     24415     24416     24412     24415     24417     24412     24415     24418
     24416     24415     24417     24416     24415     24418     24417     24415     24418
     24415     24418     24419     24415     24418     24420     24415     24418     24421
     24419     24418     24420     24419     24418     24421     24420     24418     24421
     24418     24421     24422     24418     24421     24423     24418     24421     24424
     24422     24421     24423     24422     24421     24424     24423     24421     24424
     24421     24424     24425     24421     24424     24426     24421     24424     24427
     24425     24424     24426     24425     24424     24427     24426     24424     24427
     24429     24428     24430     24429     24428     24431     24429     24428     24433
     24430     24428     24431     24430     24428     24433     24431     24428     24433
     24428     24431     24432     24428     24433     24434     24428     24433     24435
     24428     24433     24437     24434     24433     24435     24434     24433     24437
     24435     24433     24437     24433     24435     24436     24433     24437     24438
     24433     24437     24439     24433     24437     24444     24438     24437     24439
     24438     24437     24444     24439     24437     24444     24441     24440     24442
     24441     24440     24443     24441     24440     24444     24442     24440     24443
     24442     24440     24444     24443     24440     24444     24440     24443     24445
     24437     24444     24440     24443     24445     24446     24443     24445     24447
     24443     24445     24448     24446     24445     24447     24446     24445     24448
     24447     24445     24448     24445     24448     24449     24445     24448     24450
     24445     24448     24456     24449     24448     24450     24449     24448     24456
     24450     24448     24456     24448     24450     24451     24450     24451     24452
     24450     24451     24453     24452     24451     24453     24451     24453     24454
     24451     24453     24455     24451     24453     24465     24454     24453     24455
     24454     24453     24465     24455     24453     24465     24448     24456     24457
     24448     24456     24458     24448     24456     24459     24457     24456     24458
     24457     24456     24459     24458     24456     24459     24456     24459     24460
     24459     24460     24461     24459     24460     24462     24461     24460     24462
     24460     24462     24463     24460     24462     24464     24460     24462     24509
     24463     24462     24464     24463     24462     24509     24464     24462     24509
     24453     24465     24466     24453     24465     24467     24453     24465     24468
     24466     24465     24467     24466     24465     24468     24467     24465     24468
     24465     24468     24469     24465     24468     24470     24465     24468     24471
     24469     24468     24470     24469     24468     24471     24470     24468     24471
     24468     24471     24472     24468     24471     24473     24468     24471     24474
     24472     24471     24473     24472     24471     24474     24473     24471     24474
     24471     24474     24475     24471     24474     24476     24471     24474     24477
     24475     24474     24476     24475     24474     24477     24476     24474     24477
     24474     24477     24478     24474     24477     24479     24474     24477     24480
     24478     24477     24479     24478     24477     24480     24479     24477     24480
     24477     24480     24481     24477     24480     24482     24477     24480     24483
     24481     24480     24482     24481     24480     24483     24482     24480     24483
     24480     24483     24484     24480     24483     24485     24480     24483     24488
     24484     24483     24485     24484     24483     24488     24485     24483     24488
     24483     24485     24486     24483     24485     24487     24483     24485     24488
     24486     24485     24487     24486     24485     24488     24487     24485     24488
     24483     24488     24485     24483     24488     24489     24483     24488     24490
     24485     24488     24489     24485     24488     24490     24489     24488     24490
     24488     24490     24491     24488     24490     24492     24488     24490     24493
     24491     24490     24492     24491     24490     24493     24492     24490     24493
     24490     24493     24494     24490     24493     24495     24490     24493     24496
     24494     24493     24495     24494     24493     24496     24495     24493     24496
     24493     24496     24497     24493     24496     24498     24493     24496     24499
     24497     24496     24498     24497     24496     24499     24498     24496     24499
     24496     24499     24500     24496     24499     24501     24496     24499     24502
     24500     24499     24501     24500     24499     24502     24501     24499     24502
     24499     24502     24503     24499     24502     24504     24499     24502     24505
     24503     24502     24504     24503     24502     24505     24504     24502     24505
     24502     24505     24506     24502     24505     24507     24502     24505     24508
     24506     24505     24507     24506     24505     24508     24507     24505     24508
     24462     24509     24510     24462     24509     24511     24462     24509     24512
     24510     24509     24511     24510     24509     24512     24511     24509     24512
     24509     24512     24513     24509     24512     24514     24509     24512     24515
     24513     24512     24514     24513     24512     24515     24514     24512     24515
     24512     24515     24516     24512     24515     24517     24512     24515     24518
     24516     24515     24517     24516     24515     24518     24517     24515     24518
     24515     24518     24519     24515     24518     24520     24515     24518     24521
     24519     24518     24520     24519     24518     24521     24520     24518     24521
     24518     24521     24522     24518     24521     24523     24518     24521     24524
     24522     24521     24523     24522     24521     24524     24523     24521     24524
     24521     24524     24525     24521     24524     24526     24521     24524     24527
     24525     24524     24526     24525     24524     24527     24526     24524     24527
     24524     24527     24528     24524     24527     24529     24524     24527     24530
     24528     24527     24529     24528     24527     24530     24529     24527     24530
     24527     24530     24531     24527     24530     24532     24527     24530     24533
     24531     24530     24532     24531     24530     24533     24532     24530     24533
     24530     24533     24534     24530     24533     24535     24530     24533     24536
     24534     24533     24535     24534     24533     24536     24535     24533     24536
     24533     24536     24537     24533     24536     24538     24533     24536     24539
     24537     24536     24538     24537     24536     24539     24538     24536     24539
     24536     24539     24540     24536     24539     24541     24536     24539     24542
     24540     24539     24541     24540     24539     24542     24541     24539     24542
     24539     24542     24543     24539     24542     24544     24539     24542     24545
     24543     24542     24544     24543     24542     24545     24544     24542     24545
     24542     24545     24546     24542     24545     24547     24542     24545     24548
     24546     24545     24547     24546     24545     24548     24547     24545     24548
     24545     24548     24549     24545     24548     24550     24545     24548     24551
     24549     24548     24550     24549     24548     24551     24550     24548     24551
     24553     24552     24554     24553     24552     24555     24553     24552     24556
     24554     24552     24555     24554     24552     24556     24555     24552     24556
     24552     24556     24557     24552     24556     24558     24552     24556     24559
     24557     24556     24558     24557     24556     24559     24558     24556     24559
     24556     24559     24560     24556     24559     24561     24556     24559     24566
     24560     24559     24561     24560     24559     24566     24561     24559     24566
     24563     24562     24564     24563     24562     24565     24563     24562     24566
     24564     24562     24565     24564     24562     24566     24565     24562     24566
     24562     24565     24567     24559     24566     24562     24565     24567     24568
     24565     24567     24569     24565     24567     24570     24568     24567     24569
     24568     24567     24570     24569     24567     24570     24567     24570     24571
     24567     24570     24572     24567     24570     24578     24571     24570     24572
     24571     24570     24578     24572     24570     24578     24570     24572     24573
     24572     24573     24574     24572     24573     24575     24574     24573     24575
     24573     24575     24576     24573     24575     24577     24573     24575     24587
     24576     24575     24577     24576     24575     24587     24577     24575     24587
     24570     24578     24579     24570     24578     24580     24570     24578     24581
     24579     24578     24580     24579     24578     24581     24580     24578     24581
     24578     24581     24582     24581     24582     24583     24581     24582     24584
     24583     24582     24584     24582     24584     24585     24582     24584     24586
     24582     24584     24631     24585     24584     24586     24585     24584     24631
     24586     24584     24631     24575     24587     24588     24575     24587     24589
     24575     24587     24590     24588     24587     24589     24588     24587     24590
     24589     24587     24590     24587     24590     24591     24587     24590     24592
     24587     24590     24593     24591     24590     24592     24591     24590     24593
     24592     24590     24593     24590     24593     24594     24590     24593     24595
     24590     24593     24596     24594     24593     24595     24594     24593     24596
     24595     24593     24596     24593     24596     24597     24593     24596     24598
     24593     24596     24599     24597     24596     24598     24597     24596     24599
     24598     24596     24599     24596     24599     24600     24596     24599     24601
     24596     24599     24602     24600     24599     24601     24600     24599     24602
     24601     24599     24602     24599     24602     24603     24599     24602     24604
     24599     24602     24605     24603     24602     24604     24603     24602     24605
     24604     24602     24605     24602     24605     24606     24602     24605     24607
     24602     24605     24610     24606     24605     24607     24606     24605     24610
     24607     24605     24610     24605     24607     24608     24605     24607     24609
     24605     24607     24610     24608     24607     24609     24608     24607     24610
     24609     24607     24610     24605     24610     24607     24605     24610     24611
     24605     24610     24612     24607     24610     24611     24607     24610     24612
     24611     24610     24612     24610     24612     24613     24610     24612     24614
     24610     24612     24615     24613     24612     24614     24613     24612     24615
     24614     24612     24615     24612     24615     24616     24612     24615     24617
     24612     24615     24618     24616     24615     24617     24616     24615     24618
     24617     24615     24618     24615     24618     24619     24615     24618     24620
     24615     24618     24621     24619     24618     24620     24619     24618     24621
     24620     24618     24621     24618     24621     24622     24618     24621     24623
     24618     24621     24624     24622     24621     24623     24622     24621     24624
     24623     24621     24624     24621     24624     24625     24621     24624     24626
     24621     24624     24627     24625     24624     24626     24625     24624     24627
     24626     24624     24627     24624     24627     24628     24624     24627     24629
     24624     24627     24630     24628     24627     24629     24628     24627     24630
     24629     24627     24630     24584     24631     24632     24584     24631     24633
     24584     24631     24634     24632     24631     24633     24632     24631     24634
     24633     24631     24634     24631     24634     24635     24631     24634     24636
     24631     24634     24637     24635     24634     24636     24635     24634     24637
     24636     24634     24637     24634     24637     24638     24634     24637     24639
     24634     24637     24640     24638     24637     24639     24638     24637     24640
     24639     24637     24640     24637     24640     24641     24637     24640     24642
     24637     24640     24643     24641     24640     24642     24641     24640     24643
     24642     24640     24643     24640     24643     24644     24640     24643     24645
     24640     24643     24646     24644     24643     24645     24644     24643     24646
     24645     24643     24646     24643     24646     24647     24643     24646     24648
     24643     24646     24649     24647     24646     24648     24647     24646     24649
     24648     24646     24649     24646     24649     24650     24646     24649     24651
     24646     24649     24652     24650     24649     24651     24650     24649     24652
     24651     24649     24652     24649     24652     24653     24649     24652     24654
     24649     24652     24655     24653     24652     24654     24653     24652     24655
     24654     24652     24655     24652     24655     24656     24652     24655     24657
     24652     24655     24658     24656     24655     24657     24656     24655     24658
     24657     24655     24658     24655     24658     24659     24655     24658     24660
     24655     24658     24661     24659     24658     24660     24659     24658     24661
     24660     24658     24661     24658     24661     24662     24658     24661     24663
     24658     24661     24664     24662     24661     24663     24662     24661     24664
     24663     24661     24664     24661     24664     24665     24661     24664     24666
     24661     24664     24667     24665     24664     24666     24665     24664     24667
     24666     24664     24667     24664     24667     24668     24664     24667     24669
     24664     24667     24670     24668     24667     24669     24668     24667     24670
     24669     24667     24670     24667     24670     24671     24667     24670     24672
     24667     24670     24673     24671     24670     24672     24671     24670     24673
     24672     24670     24673     24675     24674     24676     24675     24674     24677
     24675     24674     24678     24676     24674     24677     24676     24674     24678
     24677     24674     24678     24674     24678     24679     24674     24678     24680
     24674     24678     24681     24679     24678     24680     24679     24678     24681
     24680     24678     24681     24678     24681     24682     24678     24681     24683
     24678     24681     24688     24682     24681     24683     24682     24681     24688
     24683     24681     24688     24685     24684     24686     24685     24684     24687
     24685     24684     24688     24686     24684     24687     24686     24684     24688
     24687     24684     24688     24684     24687     24689     24681     24688     24684
     24687     24689     24690     24687     24689     24691     24687     24689     24692
     24690     24689     24691     24690     24689     24692     24691     24689     24692
     24689     24692     24693     24689     24692     24694     24689     24692     24700
     24693     24692     24694     24693     24692     24700     24694     24692     24700
     24692     24694     24695     24694     24695     24696     24694     24695     24697
     24696     24695     24697     24695     24697     24698     24695     24697     24699
     24695     24697     24709     24698     24697     24699     24698     24697     24709
     24699     24697     24709     24692     24700     24701     24692     24700     24702
     24692     24700     24703     24701     24700     24702     24701     24700     24703
     24702     24700     24703     24700     24703     24704     24703     24704     24705
     24703     24704     24706     24705     24704     24706     24704     24706     24707
     24704     24706     24708     24704     24706     24753     24707     24706     24708
     24707     24706     24753     24708     24706     24753     24697     24709     24710
     24697     24709     24711     24697     24709     24712     24710     24709     24711
     24710     24709     24712     24711     24709     24712     24709     24712     24713
     24709     24712     24714     24709     24712     24715     24713     24712     24714
     24713     24712     24715     24714     24712     24715     24712     24715     24716
     24712     24715     24717     24712     24715     24718     24716     24715     24717
     24716     24715     24718     24717     24715     24718     24715     24718     24719
     24715     24718     24720     24715     24718     24721     24719     24718     24720
     24719     24718     24721     24720     24718     24721     24718     24721     24722
     24718     24721     24723     24718     24721     24724     24722     24721     24723
     24722     24721     24724     24723     24721     24724     24721     24724     24725
     24721     24724     24726     24721     24724     24727     24725     24724     24726
     24725     24724     24727     24726     24724     24727     24724     24727     24728
     24724     24727     24729     24724     24727     24732     24728     24727     24729
     24728     24727     24732     24729     24727     24732     24727     24729     24730
     24727     24729     24731     24727     24729     24732     24730     24729     24731
     24730     24729     24732     24731     24729     24732     24727     24732     24729
     24727     24732     24733     24727     24732     24734     24729     24732     24733
     24729     24732     24734     24733     24732     24734     24732     24734     24735
     24732     24734     24736     24732     24734     24737     24735     24734     24736
     24735     24734     24737     24736     24734     24737     24734     24737     24738
     24734     24737     24739     24734     24737     24740     24738     24737     24739
     24738     24737     24740     24739     24737     24740     24737     24740     24741
     24737     24740     24742     24737     24740     24743     24741     24740     24742
     24741     24740     24743     24742     24740     24743     24740     24743     24744
     24740     24743     24745     24740     24743     24746     24744     24743     24745
     24744     24743     24746     24745     24743     24746     24743     24746     24747
     24743     24746     24748     24743     24746     24749     24747     24746     24748
     24747     24746     24749     24748     24746     24749     24746     24749     24750
     24746     24749     24751     24746     24749     24752     24750     24749     24751
     24750     24749     24752     24751     24749     24752     24706     24753     24754
     24706     24753     24755     24706     24753     24756     24754     24753     24755
     24754     24753     24756     24755     24753     24756     24753     24756     24757
     24753     24756     24758     24753     24756     24759     24757     24756     24758
     24757     24756     24759     24758     24756     24759     24756     24759     24760
     24756     24759     24761     24756     24759     24762     24760     24759     24761
     24760     24759     24762     24761     24759     24762     24759     24762     24763
     24759     24762     24764     24759     24762     24765     24763     24762     24764
     24763     24762     24765     24764     24762     24765     24762     24765     24766
     24762     24765     24767     24762     24765     24768     24766     24765     24767
     24766     24765     24768     24767     24765     24768     24765     24768     24769
     24765     24768     24770     24765     24768     24771     24769     24768     24770
     24769     24768     24771     24770     24768     24771     24768     24771     24772
     24768     24771     24773     24768     24771     24774     24772     24771     24773
     24772     24771     24774     24773     24771     24774     24771     24774     24775
     24771     24774     24776     24771     24774     24777     24775     24774     24776
     24775     24774     24777     24776     24774     24777     24774     24777     24778
     24774     24777     24779     24774     24777     24780     24778     24777     24779
     24778     24777     24780     24779     24777     24780     24777     24780     24781
     24777     24780     24782     24777     24780     24783     24781     24780     24782
     24781     24780     24783     24782     24780     24783     24780     24783     24784
     24780     24783     24785     24780     24783     24786     24784     24783     24785
     24784     24783     24786     24785     24783     24786     24783     24786     24787
     24783     24786     24788     24783     24786     24789     24787     24786     24788
     24787     24786     24789     24788     24786     24789     24786     24789     24790
     24786     24789     24791     24786     24789     24792     24790     24789     24791
     24790     24789     24792     24791     24789     24792     24789     24792     24793
     24789     24792     24794     24789     24792     24795     24793     24792     24794
     24793     24792     24795     24794     24792     24795     24797     24796     24798
     24797     24796     24799     24797     24796     24801     24798     24796     24799
     24798     24796     24801     24799     24796     24801     24796     24799     24800
     24796     24801     24802     24796     24801     24803     24796     24801     24805
     24802     24801     24803     24802     24801     24805     24803     24801     24805
     24801     24803     24804     24801     24805     24806     24801     24805     24807
     24801     24805     24812     24806     24805     24807     24806     24805     24812
     24807     24805     24812     24809     24808     24810     24809     24808     24811
     24809     24808     24812     24810     24808     24811     24810     24808     24812
     24811     24808     24812     24808     24811     24813     24805     24812     24808
     24811     24813     24814     24811     24813     24815     24811     24813     24816
     24814     24813     24815     24814     24813     24816     24815     24813     24816
     24813     24816     24817     24813     24816     24818     24813     24816     24824
     24817     24816     24818     24817     24816     24824     24818     24816     24824
     24816     24818     24819     24818     24819     24820     24818     24819     24821
     24820     24819     24821     24819     24821     24822     24819     24821     24823
     24819     24821     24833     24822     24821     24823     24822     24821     24833
     24823     24821     24833     24816     24824     24825     24816     24824     24826
     24816     24824     24827     24825     24824     24826     24825     24824     24827
     24826     24824     24827     24824     24827     24828     24827     24828     24829
     24827     24828     24830     24829     24828     24830     24828     24830     24831
     24828     24830     24832     24828     24830     24874     24831     24830     24832
     24831     24830     24874     24832     24830     24874     24821     24833     24834
     24821     24833     24835     24821     24833     24836     24834     24833     24835
     24834     24833     24836     24835     24833     24836     24833     24836     24837
     24833     24836     24838     24833     24836     24839     24837     24836     24838
     24837     24836     24839     24838     24836     24839     24836     24839     24840
     24836     24839     24841     24836     24839     24842     24840     24839     24841
     24840     24839     24842     24841     24839     24842     24839     24842     24843
     24839     24842     24844     24839     24842     24845     24843     24842     24844
     24843     24842     24845     24844     24842     24845     24842     24845     24846
     24842     24845     24847     24842     24845     24848     24846     24845     24847
     24846     24845     24848     24847     24845     24848     24845     24848     24849
     24845     24848     24850     24845     24848     24851     24849     24848     24850
     24849     24848     24851     24850     24848     24851     24848     24851     24852
     24848     24851     24853     24852     24851     24853     24851     24853     24854
     24851     24853     24855     24854     24853     24855     24853     24855     24856
     24853     24855     24857     24853     24855     24858     24856     24855     24857
     24856     24855     24858     24857     24855     24858     24855     24858     24859
     24855     24858     24860     24855     24858     24861     24859     24858     24860
     24859     24858     24861     24860     24858     24861     24858     24861     24862
     24858     24861     24863     24858     24861     24864     24862     24861     24863
     24862     24861     24864     24863     24861     24864     24861     24864     24865
     24861     24864     24866     24861     24864     24867     24865     24864     24866
     24865     24864     24867     24866     24864     24867     24864     24867     24868
     24864     24867     24869     24864     24867     24870     24868     24867     24869
     24868     24867     24870     24869     24867     24870     24867     24870     24871
     24867     24870     24872     24867     24870     24873     24871     24870     24872
     24871     24870     24873     24872     24870     24873     24830     24874     24875
     24830     24874     24876     24830     24874     24877     24875     24874     24876
     24875     24874     24877     24876     24874     24877     24874     24877     24878
     24874     24877     24879     24874     24877     24880     24878     24877     24879
     24878     24877     24880     24879     24877     24880     24877     24880     24881
     24877     24880     24882     24877     24880     24883     24881     24880     24882
     24881     24880     24883     24882     24880     24883     24880     24883     24884
     24880     24883     24885     24880     24883     24886     24884     24883     24885
     24884     24883     24886     24885     24883     24886     24883     24886     24887
     24883     24886     24888     24883     24886     24889     24887     24886     24888
     24887     24886     24889     24888     24886     24889     24886     24889     24890
     24886     24889     24891     24886     24889     24892     24890     24889     24891
     24890     24889     24892     24891     24889     24892     24889     24892     24893
     24889     24892     24894     24889     24892     24895     24893     24892     24894
     24893     24892     24895     24894     24892     24895     24892     24895     24896
     24892     24895     24897     24892     24895     24898     24896     24895     24897
     24896     24895     24898     24897     24895     24898     24895     24898     24899
     24895     24898     24900     24895     24898     24901     24899     24898     24900
     24899     24898     24901     24900     24898     24901     24898     24901     24902
     24898     24901     24903     24898     24901     24904     24902     24901     24903
     24902     24901     24904     24903     24901     24904     24901     24904     24905
     24901     24904     24906     24901     24904     24907     24905     24904     24906
     24905     24904     24907     24906     24904     24907     24904     24907     24908
     24904     24907     24909     24904     24907     24910     24908     24907     24909
     24908     24907     24910     24909     24907     24910     24907     24910     24911
     24907     24910     24912     24907     24910     24913     24911     24910     24912
     24911     24910     24913     24912     24910     24913     24910     24913     24914
     24910     24913     24915     24910     24913     24916     24914     24913     24915
     24914     24913     24916     24915     24913     24916

     67656 !NPHI: dihedrals
         1         5         8         9         1         5         8        10
         1         5         8        15         2         1         5         6
         2         1         5         7         2         1         5         8
         3         1         5         6         3         1         5         7
         3         1         5         8         4         1         5         6
         4         1         5         7         4         1         5         8
         5         8        15        11         6         5         8         9
         6         5         8        10         6         5         8        15
         7         5         8         9         7         5         8        10
         7         5         8        15         8        15        11        12
         8        15        11        13         8        15        11        14
         9         8        15        11        10         8        15        11
        11        14        16        17        11        14        16        18
        11        14        16        19        12        11        14        16
        13        11        14        16        14        16        19        20
        14        16        19        21        14        16        19        27
        15        11        14        16        16        19        21        22
        16        19        27        28        16        19        27        29
        16        19        27        30        17        16        19        20
        17        16        19        21        17        16        19        27
        18        16        19        20        18        16        19        21
        18        16        19        27        19        21        22        23
        19        21        22        24        19        27        30        31
        20        19        21        22        20        19        27        28
        20        19        27        29        20        19        27        30
        21        19        27        28        21        19        27        29
        21        19        27        30        21        22        24        25
        21        22        24        26        21        22        24        36
        22        21        19        27        22        24        36        37
        22        24        36        38        22        24        36        39
        23        22        24        25        23        22        24        26
        23        22        24        36        24        36        39        40
        24        36        39        41        24        36        39        42
        25        24        36        37        25        24        36        38
        25        24        36        39        26        24        36        37
        26        24        36        38        26        24        36        39
        27        30        31        32        27        30        31        33
        28        27        30        31        29        27        30        31
        30        31        33        34        30        31        33        35
        30        31        33        80        31        33        80        81
        31        33        80        82        31        33        80        83
        32        31        33        34        32        31        33        35
        32        31        33        80        33        80        83        84
        33        80        83        85        33        80        83        86
        34        33        80        81        34        33        80        82
        34        33        80        83        35        33        80        81
        35        33        80        82        35        33        80        83
        36        39        42        43        36        39        42        44
        36        39        42        45        37        36        39        40
        37        36        39        41        37        36        39        42
        38        36        39        40        38        36        39        41
        38        36        39        42        39        42        45        46
        39        42        45        47        39        42        45        48
        40        39        42        43        40        39        42        44
        40        39        42        45        41        39        42        43
        41        39        42        44        41        39        42        45
        42        45        48        49        42        45        48        50
        42        45        48        51        43        42        45        46
        43        42        45        47        43        42        45        48
        44        42        45        46        44        42        45        47
        44        42        45        48        45        48        51        52
        45        48        51        53        45        48        51        54
        46        45        48        49        46        45        48        50
        46        45        48        51        47        45        48        49
        47        45        48        50        47        45        48        51
        48        51        54        55        48        51        54        56
        48        51        54        59        49        48        51        52
        49        48        51        53        49        48        51        54
        50        48        51        52        50        48        51        53
        50        48        51        54        51        54        56        57
        51        54        56        58        51        54        56        59
        51        54        59        56        51        54        59        60
        51        54        59        61        52        51        54        55
        52        51        54        56        52        51        54        59
        53        51        54        55        53        51        54        56
        53        51        54        59        54        56        59        60
        54        56        59        61        54        59        56        57
        54        59        56        58        54        59        61        62
        54        59        61        63        54        59        61        64
        55        54        56        57        55        54        56        58
        55        54        56        59        55        54        59        56
        55        54        59        60        55        54        59        61
        56        54        59        60        56        54        59        61
        56        59        61        62        56        59        61        63
        56        59        61        64        57        56        54        59
        57        56        59        60        57        56        59        61
        58        56        54        59        58        56        59        60
        58        56        59        61        59        61        64        65
        59        61        64        66        59        61        64        67
        60        59        61        62        60        59        61        63
        60        59        61        64        61        64        67        68
        61        64        67        69        61        64        67        70
        62        61        64        65        62        61        64        66
        62        61        64        67        63        61        64        65
        63        61        64        66        63        61        64        67
        64        67        70        71        64        67        70        72
        64        67        70        73        65        64        67        68
        65        64        67        69        65        64        67        70
        66        64        67        68        66        64        67        69
        66        64        67        70        67        70        73        74
        67        70        73        75        67        70        73        76
        68        67        70        71        68        67        70        72
        68        67        70        73        69        67        70        71
        69        67        70        72        69        67        70        73
        70        73        76        77        70        73        76        78
        70        73        76        79        71        70        73        74
        71        70        73        75        71        70        73        76
        72        70        73        74        72        70        73        75
        72        70        73        76        74        73        76        77
        74        73        76        78        74        73        76        79
        75        73        76        77        75        73        76        78
        75        73        76        79        80        83        86        87
        80        83        86        88        80        83        86        89
        81        80        83        84        81        80        83        85
        81        80        83        86        82        80        83        84
        82        80        83        85        82        80        83        86
        83        86        89        90        83        86        89        91
        83        86        89        92        84        83        86        87
        84        83        86        88        84        83        86        89
        85        83        86        87        85        83        86        88
        85        83        86        89        86        89        92        93
        86        89        92        94        86        89        92        95
        87        86        89        90        87        86        89        91
        87        86        89        92        88        86        89        90
        88        86        89        91        88        86        89        92
        89        92        95        96        89        92        95        97
        89        92        95        98        90        89        92        93
        90        89        92        94        90        89        92        95
        91        89        92        93        91        89        92        94
        91        89        92        95        92        95        98        99
        92        95        98       100        92        95        98       101
        93        92        95        96        93        92        95        97
        93        92        95        98        94        92        95        96
        94        92        95        97        94        92        95        98
        95        98       101       102        95        98       101       103
        95        98       101       104        96        95        98        99
        96        95        98       100        96        95        98       101
        97        95        98        99        97        95        98       100
        97        95        98       101        98       101       104       105
        98       101       104       106        98       101       104       107
        99        98       101       102        99        98       101       103
        99        98       101       104       100        98       101       102
       100        98       101       103       100        98       101       104
       101       104       107       108       101       104       107       109
       101       104       107       110       102       101       104       105
       102       101       104       106       102       101       104       107
       103       101       104       105       103       101       104       106
       103       101       104       107       104       107       110       111
       104       107       110       112       104       107       110       113
       105       104       107       108       105       104       107       109
       105       104       107       110       106       104       107       108
       106       104       107       109       106       104       107       110
       107       110       113       114       107       110       113       115
       107       110       113       116       108       107       110       111
       108       107       110       112       108       107       110       113
       109       107       110       111       109       107       110       112
       109       107       110       113       110       113       116       117
       110       113       116       118       110       113       116       119
       111       110       113       114       111       110       113       115
       111       110       113       116       112       110       113       114
       112       110       113       115       112       110       113       116
       114       113       116       117       114       113       116       118
       114       113       116       119       115       113       116       117
       115       113       116       118       115       113       116       119
       120       124       127       128       120       124       127       129
       120       124       127       134       121       120       124       125
       121       120       124       126       121       120       124       127
       122       120       124       125       122       120       124       126
       122       120       124       127       123       120       124       125
       123       120       124       126       123       120       124       127
       124       127       134       130       125       124       127       128
       125       124       127       129       125       124       127       134
       126       124       127       128       126       124       127       129
       126       124       127       134       127       134       130       131
       127       134       130       132       127       134       130       133
       128       127       134       130       129       127       134       130
       130       133       135       136       130       133       135       137
       130       133       135       138       131       130       133       135
       132       130       133       135       133       135       138       139
       133       135       138       140       133       135       138       146
       134       130       133       135       135       138       140       141
       135       138       146       147       135       138       146       148
       135       138       146       149       136       135       138       139
       136       135       138       140       136       135       138       146
       137       135       138       139       137       135       138       140
       137       135       138       146       138       140       141       142
       138       140       141       143       138       146       149       150
       139       138       140       141       139       138       146       147
       139       138       146       148       139       138       146       149
       140       138       146       147       140       138       146       148
       140       138       146       149       140       141       143       144
       140       141       143       145       140       141       143       155
       141       140       138       146       141       143       155       156
       141       143       155       157       141       143       155       158
       142       141       143       144       142       141       143       145
       142       141       143       155       143       155       158       159
       143       155       158       160       143       155       158       161
       144       143       155       156       144       143       155       157
       144       143       155       158       145       143       155       156
       145       143       155       157       145       143       155       158
       146       149       150       151       146       149       150       152
       147       146       149       150       148       146       149       150
       149       150       152       153       149       150       152       154
       149       150       152       199       150       152       199       200
       150       152       199       201       150       152       199       202
       151       150       152       153       151       150       152       154
       151       150       152       199       152       199       202       203
       152       199       202       204       152       199       202       205
       153       152       199       200       153       152       199       201
       153       152       199       202       154       152       199       200
       154       152       199       201       154       152       199       202
       155       158       161       162       155       158       161       163
       155       158       161       164       156       155       158       159
       156       155       158       160       156       155       158       161
       157       155       158       159       157       155       158       160
       157       155       158       161       158       161       164       165
       158       161       164       166       158       161       164       167
       159       158       161       162       159       158       161       163
       159       158       161       164       160       158       161       162
       160       158       161       163       160       158       161       164
       161       164       167       168       161       164       167       169
       161       164       167       170       162       161       164       165
       162       161       164       166       162       161       164       167
       163       161       164       165       163       161       164       166
       163       161       164       167       164       167       170       171
       164       167       170       172       164       167       170       173
       165       164       167       168       165       164       167       169
       165       164       167       170       166       164       167       168
       166       164       167       169       166       164       167       170
       167       170       173       174       167       170       173       175
       167       170       173       178       168       167       170       171
       168       167       170       172       168       167       170       173
       169       167       170       171       169       167       170       172
       169       167       170       173       170       173       175       176
       170       173       175       177       170       173       175       178
       170       173       178       175       170       173       178       179
       170       173       178       180       171       170       173       174
       171       170       173       175       171       170       173       178
       172       170       173       174       172       170       173       175
       172       170       173       178       173       175       178       179
       173       175       178       180       173       178       175       176
       173       178       175       177       173       178       180       181
       173       178       180       182       173       178       180       183
       174       173       175       176       174       173       175       177
       174       173       175       178       174       173       178       175
       174       173       178       179       174       173       178       180
       175       173       178       179       175       173       178       180
       175       178       180       181       175       178       180       182
       175       178       180       183       176       175       173       178
       176       175       178       179       176       175       178       180
       177       175       173       178       177       175       178       179
       177       175       178       180       178       180       183       184
       178       180       183       185       178       180       183       186
       179       178       180       181       179       178       180       182
       179       178       180       183       180       183       186       187
       180       183       186       188       180       183       186       189
       181       180       183       184       181       180       183       185
       181       180       183       186       182       180       183       184
       182       180       183       185       182       180       183       186
       183       186       189       190       183       186       189       191
       183       186       189       192       184       183       186       187
       184       183       186       188       184       183       186       189
       185       183       186       187       185       183       186       188
       185       183       186       189       186       189       192       193
       186       189       192       194       186       189       192       195
       187       186       189       190       187       186       189       191
       187       186       189       192       188       186       189       190
       188       186       189       191       188       186       189       192
       189       192       195       196       189       192       195       197
       189       192       195       198       190       189       192       193
       190       189       192       194       190       189       192       195
       191       189       192       193       191       189       192       194
       191       189       192       195       193       192       195       196
       193       192       195       197       193       192       195       198
       194       192       195       196       194       192       195       197
       194       192       195       198       199       202       205       206
       199       202       205       207       199       202       205       208
       200       199       202       203       200       199       202       204
       200       199       202       205       201       199       202       203
       201       199       202       204       201       199       202       205
       202       205       208       209       202       205       208       210
       202       205       208       211       203       202       205       206
       203       202       205       207       203       202       205       208
       204       202       205       206       204       202       205       207
       204       202       205       208       205       208       211       212
       205       208       211       213       205       208       211       214
       206       205       208       209       206       205       208       210
       206       205       208       211       207       205       208       209
       207       205       208       210       207       205       208       211
       208       211       214       215       208       211       214       216
       208       211       214       217       209       208       211       212
       209       208       211       213       209       208       211       214
       210       208       211       212       210       208       211       213
       210       208       211       214       211       214       217       218
       211       214       217       219       211       214       217       220
       212       211       214       215       212       211       214       216
       212       211       214       217       213       211       214       215
       213       211       214       216       213       211       214       217
       214       217       220       221       214       217       220       222
       214       217       220       223       215       214       217       218
       215       214       217       219       215       214       217       220
       216       214       217       218       216       214       217       219
       216       214       217       220       217       220       223       224
       217       220       223       225       217       220       223       226
       218       217       220       221       218       217       220       222
       218       217       220       223       219       217       220       221
       219       217       220       222       219       217       220       223
       220       223       226       227       220       223       226       228
       220       223       226       229       221       220       223       224
       221       220       223       225       221       220       223       226
       222       220       223       224       222       220       223       225
       222       220       223       226       223       226       229       230
       223       226       229       231       223       226       229       232
       224       223       226       227       224       223       226       228
       224       223       226       229       225       223       226       227
       225       223       226       228       225       223       226       229
       226       229       232       233       226       229       232       234
       226       229       232       235       227       226       229       230
       227       226       229       231       227       226       229       232
       228       226       229       230       228       226       229       231
       228       226       229       232       229       232       235       236
       229       232       235       237       229       232       235       238
       230       229       232       233       230       229       232       234
       230       229       232       235       231       229       232       233
       231       229       232       234       231       229       232       235
       232       235       238       239       232       235       238       240
       232       235       238       241       233       232       235       236
       233       232       235       237       233       232       235       238
       234       232       235       236       234       232       235       237
       234       232       235       238       236       235       238       239
       236       235       238       240       236       235       238       241
       237       235       238       239       237       235       238       240
       237       235       238       241       242       247       249       250
       242       247       251       252       242       247       251       253
       242       247       251       258       243       242       245       246
       243       242       247       248       243       242       247       249
       243       242       247       251       244       242       245       246
       244       242       247       248       244       242       247       249
       244       242       247       251       245       242       247       248
       245       242       247       249       245       242       247       251
       246       245       242       247       247       251       258       254
       248       247       249       250       248       247       251       252
       248       247       251       253       248       247       251       258
       249       247       251       252       249       247       251       253
       249       247       251       258       250       249       247       251
       251       258       254       255       251       258       254       256
       251       258       254       257       252       251       258       254
       253       251       258       254       254       257       259       260
       254       257       259       261       254       257       259       262
       255       254       257       259       256       254       257       259
       257       259       262       263       257       259       262       264
       257       259       262       270       258       254       257       259
       259       262       264       265       259       262       270       271
       259       262       270       272       259       262       270       273
       260       259       262       263       260       259       262       264
       260       259       262       270       261       259       262       263
       261       259       262       264       261       259       262       270
       262       264       265       266       262       264       265       267
       262       270       273       274       263       262       264       265
       263       262       270       271       263       262       270       272
       263       262       270       273       264       262       270       271
       264       262       270       272       264       262       270       273
       264       265       267       268       264       265       267       269
       264       265       267       279       265       264       262       270
       265       267       279       280       265       267       279       281
       265       267       279       282       266       265       267       268
       266       265       267       269       266       265       267       279
       267       279       282       283       267       279       282       284
       267       279       282       285       268       267       279       280
       268       267       279       281       268       267       279       282
       269       267       279       280       269       267       279       281
       269       267       279       282       270       273       274       275
       270       273       274       276       271       270       273       274
       272       270       273       274       273       274       276       277
       273       274       276       278       273       274       276       320
       274       276       320       321       274       276       320       322
       274       276       320       323       275       274       276       277
       275       274       276       278       275       274       276       320
       276       320       323       324       276       320       323       325
       276       320       323       326       277       276       320       321
       277       276       320       322       277       276       320       323
       278       276       320       321       278       276       320       322
       278       276       320       323       279       282       285       286
       279       282       285       287       279       282       285       288
       280       279       282       283       280       279       282       284
       280       279       282       285       281       279       282       283
       281       279       282       284       281       279       282       285
       282       285       288       289       282       285       288       290
       282       285       288       291       283       282       285       286
       283       282       285       287       283       282       285       288
       284       282       285       286       284       282       285       287
       284       282       285       288       285       288       291       292
       285       288       291       293       285       288       291       294
       286       285       288       289       286       285       288       290
       286       285       288       291       287       285       288       289
       287       285       288       290       287       285       288       291
       288       291       294       295       288       291       294       296
       288       291       294       297       289       288       291       292
       289       288       291       293       289       288       291       294
       290       288       291       292       290       288       291       293
       290       288       291       294       291       294       297       298
       291       294       297       299       292       291       294       295
       292       291       294       296       292       291       294       297
       293       291       294       295       293       291       294       296
       293       291       294       297       294       297       299       300
       294       297       299       301       295       294       297       298
       295       294       297       299       296       294       297       298
       296       294       297       299       297       299       301       302
       297       299       301       303       297       299       301       304
       298       297       299       300       298       297       299       301
       299       301       304       305       299       301       304       306
       299       301       304       307       300       299       301       302
       300       299       301       303       300       299       301       304
       301       304       307       308       301       304       307       309
       301       304       307       310       302       301       304       305
       302       301       304       306       302       301       304       307
       303       301       304       305       303       301       304       306
       303       301       304       307       304       307       310       311
       304       307       310       312       304       307       310       313
       305       304       307       308       305       304       307       309
       305       304       307       310       306       304       307       308
       306       304       307       309       306       304       307       310
       307       310       313       314       307       310       313       315
       307       310       313       316       308       307       310       311
       308       307       310       312       308       307       310       313
       309       307       310       311       309       307       310       312
       309       307       310       313       310       313       316       317
       310       313       316       318       310       313       316       319
       311       310       313       314       311       310       313       315
       311       310       313       316       312       310       313       314
       312       310       313       315       312       310       313       316
       314       313       316       317       314       313       316       318
       314       313       316       319       315       313       316       317
       315       313       316       318       315       313       316       319
       320       323       326       327       320       323       326       328
       320       323       326       329       321       320       323       324
       321       320       323       325       321       320       323       326
       322       320       323       324       322       320       323       325
       322       320       323       326       323       326       329       330
       323       326       329       331       323       326       329       332
       324       323       326       327       324       323       326       328
       324       323       326       329       325       323       326       327
       325       323       326       328       325       323       326       329
       326       329       332       333       326       329       332       334
       326       329       332       335       327       326       329       330
       327       326       329       331       327       326       329       332
       328       326       329       330       328       326       329       331
       328       326       329       332       329       332       335       336
       329       332       335       337       329       332       335       338
       330       329       332       333       330       329       332       334
       330       329       332       335       331       329       332       333
       331       329       332       334       331       329       332       335
       332       335       338       339       332       335       338       340
       332       335       338       341       333       332       335       336
       333       332       335       337       333       332       335       338
       334       332       335       336       334       332       335       337
       334       332       335       338       335       338       341       342
       335       338       341       343       335       338       341       344
       336       335       338       339       336       335       338       340
       336       335       338       341       337       335       338       339
       337       335       338       340       337       335       338       341
       338       341       344       345       338       341       344       346
       338       341       344       347       339       338       341       342
       339       338       341       343       339       338       341       344
       340       338       341       342       340       338       341       343
       340       338       341       344       341       344       347       348
       341       344       347       349       341       344       347       350
       342       341       344       345       342       341       344       346
       342       341       344       347       343       341       344       345
       343       341       344       346       343       341       344       347
       344       347       350       351       344       347       350       352
       344       347       350       353       345       344       347       348
       345       344       347       349       345       344       347       350
       346       344       347       348       346       344       347       349
       346       344       347       350       347       350       353       354
       347       350       353       355       347       350       353       356
       348       347       350       351       348       347       350       352
       348       347       350       353       349       347       350       351
       349       347       350       352       349       347       350       353
       350       353       356       357       350       353       356       358
       350       353       356       359       351       350       353       354
       351       350       353       355       351       350       353       356
       352       350       353       354       352       350       353       355
       352       350       353       356       353       356       359       360
       353       356       359       361       353       356       359       362
       354       353       356       357       354       353       356       358
       354       353       356       359       355       353       356       357
       355       353       356       358       355       353       356       359
       357       356       359       360       357       356       359       361
       357       356       359       362       358       356       359       360
       358       356       359       361       358       356       359       362
       363       368       370       371       363       368       372       373
       363       368       372       374       363       368       372       379
       364       363       366       367       364       363       368       369
       364       363       368       370       364       363       368       372
       365       363       366       367       365       363       368       369
       365       363       368       370       365       363       368       372
       366       363       368       369       366       363       368       370
       366       363       368       372       367       366       363       368
       368       372       379       375       369       368       370       371
       369       368       372       373       369       368       372       374
       369       368       372       379       370       368       372       373
       370       368       372       374       370       368       372       379
       371       370       368       372       372       379       375       376
       372       379       375       377       372       379       375       378
       373       372       379       375       374       372       379       375
       375       378       380       381       375       378       380       382
       375       378       380       383       376       375       378       380
       377       375       378       380       378       380       383       384
       378       380       383       385       378       380       383       391
       379       375       378       380       380       383       385       386
       380       383       391       392       380       383       391       393
       380       383       391       394       381       380       383       384
       381       380       383       385       381       380       383       391
       382       380       383       384       382       380       383       385
       382       380       383       391       383       385       386       387
       383       385       386       388       383       391       394       395
       384       383       385       386       384       383       391       392
       384       383       391       393       384       383       391       394
       385       383       391       392       385       383       391       393
       385       383       391       394       385       386       388       389
       385       386       388       390       385       386       388       400
       386       385       383       391       386       388       400       401
       386       388       400       402       386       388       400       403
       387       386       388       389       387       386       388       390
       387       386       388       400       388       400       403       404
       388       400       403       405       388       400       403       406
       389       388       400       401       389       388       400       402
       389       388       400       403       390       388       400       401
       390       388       400       402       390       388       400       403
       391       394       395       396       391       394       395       397
       392       391       394       395       393       391       394       395
       394       395       397       398       394       395       397       399
       394       395       397       444       395       397       444       445
       395       397       444       446       395       397       444       447
       396       395       397       398       396       395       397       399
       396       395       397       444       397       444       447       448
       397       444       447       449       397       444       447       450
       398       397       444       445       398       397       444       446
       398       397       444       447       399       397       444       445
       399       397       444       446       399       397       444       447
       400       403       406       407       400       403       406       408
       400       403       406       409       401       400       403       404
       401       400       403       405       401       400       403       406
       402       400       403       404       402       400       403       405
       402       400       403       406       403       406       409       410
       403       406       409       411       403       406       409       412
       404       403       406       407       404       403       406       408
       404       403       406       409       405       403       406       407
       405       403       406       408       405       403       406       409
       406       409       412       413       406       409       412       414
       406       409       412       415       407       406       409       410
       407       406       409       411       407       406       409       412
       408       406       409       410       408       406       409       411
       408       406       409       412       409       412       415       416
       409       412       415       417       409       412       415       418
       410       409       412       413       410       409       412       414
       410       409       412       415       411       409       412       413
       411       409       412       414       411       409       412       415
       412       415       418       419       412       415       418       420
       412       415       418       423       413       412       415       416
       413       412       415       417       413       412       415       418
       414       412       415       416       414       412       415       417
       414       412       415       418       415       418       420       421
       415       418       420       422       415       418       420       423
       415       418       423       420       415       418       423       424
       415       418       423       425       416       415       418       419
       416       415       418       420       416       415       418       423
       417       415       418       419       417       415       418       420
       417       415       418       423       418       420       423       424
       418       420       423       425       418       423       420       421
       418       423       420       422       418       423       425       426
       418       423       425       427       418       423       425       428
       419       418       420       421       419       418       420       422
       419       418       420       423       419       418       423       420
       419       418       423       424       419       418       423       425
       420       418       423       424       420       418       423       425
       420       423       425       426       420       423       425       427
       420       423       425       428       421       420       418       423
       421       420       423       424       421       420       423       425
       422       420       418       423       422       420       423       424
       422       420       423       425       423       425       428       429
       423       425       428       430       423       425       428       431
       424       423       425       426       424       423       425       427
       424       423       425       428       425       428       431       432
       425       428       431       433       425       428       431       434
       426       425       428       429       426       425       428       430
       426       425       428       431       427       425       428       429
       427       425       428       430       427       425       428       431
       428       431       434       435       428       431       434       436
       428       431       434       437       429       428       431       432
       429       428       431       433       429       428       431       434
       430       428       431       432       430       428       431       433
       430       428       431       434       431       434       437       438
       431       434       437       439       431       434       437       440
       432       431       434       435       432       431       434       436
       432       431       434       437       433       431       434       435
       433       431       434       436       433       431       434       437
       434       437       440       441       434       437       440       442
       434       437       440       443       435       434       437       438
       435       434       437       439       435       434       437       440
       436       434       437       438       436       434       437       439
       436       434       437       440       438       437       440       441
       438       437       440       442       438       437       440       443
       439       437       440       441       439       437       440       442
       439       437       440       443       444       447       450       451
       444       447       450       452       444       447       450       453
       445       444       447       448       445       444       447       449
       445       444       447       450       446       444       447       448
       446       444       447       449       446       444       447       450
       447       450       453       454       447       450       453       455
       447       450       453       456       448       447       450       451
       448       447       450       452       448       447       450       453
       449       447       450       451       449       447       450       452
       449       447       450       453       450       453       456       457
       450       453       456       458       450       453       456       459
       451       450       453       454       451       450       453       455
       451       450       453       456       452       450       453       454
       452       450       453       455       452       450       453       456
       453       456       459       460       453       456       459       461
       453       456       459       462       454       453       456       457
       454       453       456       458       454       453       456       459
       455       453       456       457       455       453       456       458
       455       453       456       459       456       459       462       463
       456       459       462       464       456       459       462       465
       457       456       459       460       457       456       459       461
       457       456       459       462       458       456       459       460
       458       456       459       461       458       456       459       462
       459       462       465       466       459       462       465       467
       459       462       465       468       460       459       462       463
       460       459       462       464       460       459       462       465
       461       459       462       463       461       459       462       464
       461       459       462       465       462       465       468       469
       462       465       468       470       462       465       468       471
       463       462       465       466       463       462       465       467
       463       462       465       468       464       462       465       466
       464       462       465       467       464       462       465       468
       465       468       471       472       465       468       471       473
       465       468       471       474       466       465       468       469
       466       465       468       470       466       465       468       471
       467       465       468       469       467       465       468       470
       467       465       468       471       468       471       474       475
       468       471       474       476       468       471       474       477
       469       468       471       472       469       468       471       473
       469       468       471       474       470       468       471       472
       470       468       471       473       470       468       471       474
       471       474       477       478       471       474       477       479
       471       474       477       480       472       471       474       475
       472       471       474       476       472       471       474       477
       473       471       474       475       473       471       474       476
       473       471       474       477       474       477       480       481
       474       477       480       482       474       477       480       483
       475       474       477       478       475       474       477       479
       475       474       477       480       476       474       477       478
       476       474       477       479       476       474       477       480
       477       480       483       484       477       480       483       485
       477       480       483       486       478       477       480       481
       478       477       480       482       478       477       480       483
       479       477       480       481       479       477       480       482
       479       477       480       483       481       480       483       484
       481       480       483       485       481       480       483       486
       482       480       483       484       482       480       483       485
       482       480       483       486       487       491       494       495
       487       491       494       496       487       491       494       501
       488       487       491       492       488       487       491       493
       488       487       491       494       489       487       491       492
       489       487       491       493       489       487       491       494
       490       487       491       492       490       487       491       493
       490       487       491       494       491       494       501       497
       492       491       494       495       492       491       494       496
       492       491       494       501       493       491       494       495
       493       491       494       496       493       491       494       501
       494       501       497       498       494       501       497       499
       494       501       497       500       495       494       501       497
       496       494       501       497       497       500       502       503
       497       500       502       504       497       500       502       505
       498       497       500       502       499       497       500       502
       500       502       505       506       500       502       505       507
       500       502       505       513       501       497       500       502
       502       505       507       508       502       505       513       514
       502       505       513       515       502       505       513       516
       503       502       505       506       503       502       505       507
       503       502       505       513       504       502       505       506
       504       502       505       507       504       502       505       513
       505       507       508       509       505       507       508       510
       505       513       516       517       506       505       507       508
       506       505       513       514       506       505       513       515
       506       505       513       516       507       505       513       514
       507       505       513       515       507       505       513       516
       507       508       510       511       507       508       510       512
       507       508       510       522       508       507       505       513
       508       510       522       523       508       510       522       524
       508       510       522       525       509       508       510       511
       509       508       510       512       509       508       510       522
       510       522       525       526       510       522       525       527
       510       522       525       528       511       510       522       523
       511       510       522       524       511       510       522       525
       512       510       522       523       512       510       522       524
       512       510       522       525       513       516       517       518
       513       516       517       519       514       513       516       517
       515       513       516       517       516       517       519       520
       516       517       519       521       516       517       519       566
       517       519       566       567       517       519       566       568
       517       519       566       569       518       517       519       520
       518       517       519       521       518       517       519       566
       519       566       569       570       519       566       569       571
       519       566       569       572       520       519       566       567
       520       519       566       568       520       519       566       569
       521       519       566       567       521       519       566       568
       521       519       566       569       522       525       528       529
       522       525       528       530       522       525       528       531
       523       522       525       526       523       522       525       527
       523       522       525       528       524       522       525       526
       524       522       525       527       524       522       525       528
       525       528       531       532       525       528       531       533
       525       528       531       534       526       525       528       529
       526       525       528       530       526       525       528       531
       527       525       528       529       527       525       528       530
       527       525       528       531       528       531       534       535
       528       531       534       536       528       531       534       537
       529       528       531       532       529       528       531       533
       529       528       531       534       530       528       531       532
       530       528       531       533       530       528       531       534
       531       534       537       538       531       534       537       539
       531       534       537       540       532       531       534       535
       532       531       534       536       532       531       534       537
       533       531       534       535       533       531       534       536
       533       531       534       537       534       537       540       541
       534       537       540       542       534       537       540       545
       535       534       537       538       535       534       537       539
       535       534       537       540       536       534       537       538
       536       534       537       539       536       534       537       540
       537       540       542       543       537       540       542       544
       537       540       542       545       537       540       545       542
       537       540       545       546       537       540       545       547
       538       537       540       541       538       537       540       542
       538       537       540       545       539       537       540       541
       539       537       540       542       539       537       540       545
       540       542       545       546       540       542       545       547
       540       545       542       543       540       545       542       544
       540       545       547       548       540       545       547       549
       540       545       547       550       541       540       542       543
       541       540       542       544       541       540       542       545
       541       540       545       542       541       540       545       546
       541       540       545       547       542       540       545       546
       542       540       545       547       542       545       547       548
       542       545       547       549       542       545       547       550
       543       542       540       545       543       542       545       546
       543       542       545       547       544       542       540       545
       544       542       545       546       544       542       545       547
       545       547       550       551       545       547       550       552
       545       547       550       553       546       545       547       548
       546       545       547       549       546       545       547       550
       547       550       553       554       547       550       553       555
       547       550       553       556       548       547       550       551
       548       547       550       552       548       547       550       553
       549       547       550       551       549       547       550       552
       549       547       550       553       550       553       556       557
       550       553       556       558       550       553       556       559
       551       550       553       554       551       550       553       555
       551       550       553       556       552       550       553       554
       552       550       553       555       552       550       553       556
       553       556       559       560       553       556       559       561
       553       556       559       562       554       553       556       557
       554       553       556       558       554       553       556       559
       555       553       556       557       555       553       556       558
       555       553       556       559       556       559       562       563
       556       559       562       564       556       559       562       565
       557       556       559       560       557       556       559       561
       557       556       559       562       558       556       559       560
       558       556       559       561       558       556       559       562
       560       559       562       563       560       559       562       564
       560       559       562       565       561       559       562       563
       561       559       562       564       561       559       562       565
       566       569       572       573       566       569       572       574
       566       569       572       575       567       566       569       570
       567       566       569       571       567       566       569       572
       568       566       569       570       568       566       569       571
       568       566       569       572       569       572       575       576
       569       572       575       577       569       572       575       578
       570       569       572       573       570       569       572       574
       570       569       572       575       571       569       572       573
       571       569       572       574       571       569       572       575
       572       575       578       579       572       575       578       580
       572       575       578       581       573       572       575       576
       573       572       575       577       573       572       575       578
       574       572       575       576       574       572       575       577
       574       572       575       578       575       578       581       582
       575       578       581       583       575       578       581       584
       576       575       578       579       576       575       578       580
       576       575       578       581       577       575       578       579
       577       575       578       580       577       575       578       581
       578       581       584       585       578       581       584       586
       578       581       584       587       579       578       581       582
       579       578       581       583       579       578       581       584
       580       578       581       582       580       578       581       583
       580       578       581       584       581       584       587       588
       581       584       587       589       581       584       587       590
       582       581       584       585       582       581       584       586
       582       581       584       587       583       581       584       585
       583       581       584       586       583       581       584       587
       584       587       590       591       584       587       590       592
       584       587       590       593       585       584       587       588
       585       584       587       589       585       584       587       590
       586       584       587       588       586       584       587       589
       586       584       587       590       587       590       593       594
       587       590       593       595       587       590       593       596
       588       587       590       591       588       587       590       592
       588       587       590       593       589       587       590       591
       589       587       590       592       589       587       590       593
       590       593       596       597       590       593       596       598
       590       593       596       599       591       590       593       594
       591       590       593       595       591       590       593       596
       592       590       593       594       592       590       593       595
       592       590       593       596       593       596       599       600
       593       596       599       601       593       596       599       602
       594       593       596       597       594       593       596       598
       594       593       596       599       595       593       596       597
       595       593       596       598       595       593       596       599
       596       599       602       603       596       599       602       604
       596       599       602       605       597       596       599       600
       597       596       599       601       597       596       599       602
       598       596       599       600       598       596       599       601
       598       596       599       602       600       599       602       603
       600       599       602       604       600       599       602       605
       601       599       602       603       601       599       602       604
       601       599       602       605       606       610       613       614
       606       610       613       615       606       610       613       620
       607       606       610       611       607       606       610       612
       607       606       610       613       608       606       610       611
       608       606       610       612       608       606       610       613
       609       606       610       611       609       606       610       612
       609       606       610       613       610       613       620       616
       611       610       613       614       611       610       613       615
       611       610       613       620       612       610       613       614
       612       610       613       615       612       610       613       620
       613       620       616       617       613       620       616       618
       613       620       616       619       614       613       620       616
       615       613       620       616       616       619       621       622
       616       619       621       623       616       619       621       624
       617       616       619       621       618       616       619       621
       619       621       624       625       619       621       624       626
       619       621       624       632       620       616       619       621
       621       624       626       627       621       624       632       633
       621       624       632       634       621       624       632       635
       622       621       624       625       622       621       624       626
       622       621       624       632       623       621       624       625
       623       621       624       626       623       621       624       632
       624       626       627       628       624       626       627       629
       624       632       635       636       625       624       626       627
       625       624       632       633       625       624       632       634
       625       624       632       635       626       624       632       633
       626       624       632       634       626       624       632       635
       626       627       629       630       626       627       629       631
       626       627       629       641       627       626       624       632
       627       629       641       642       627       629       641       643
       627       629       641       644       628       627       629       630
       628       627       629       631       628       627       629       641
       629       641       644       645       629       641       644       646
       629       641       644       647       630       629       641       642
       630       629       641       643       630       629       641       644
       631       629       641       642       631       629       641       643
       631       629       641       644       632       635       636       637
       632       635       636       638       633       632       635       636
       634       632       635       636       635       636       638       639
       635       636       638       640       635       636       638       685
       636       638       685       686       636       638       685       687
       636       638       685       688       637       636       638       639
       637       636       638       640       637       636       638       685
       638       685       688       689       638       685       688       690
       638       685       688       691       639       638       685       686
       639       638       685       687       639       638       685       688
       640       638       685       686       640       638       685       687
       640       638       685       688       641       644       647       648
       641       644       647       649       641       644       647       650
       642       641       644       645       642       641       644       646
       642       641       644       647       643       641       644       645
       643       641       644       646       643       641       644       647
       644       647       650       651       644       647       650       652
       644       647       650       653       645       644       647       648
       645       644       647       649       645       644       647       650
       646       644       647       648       646       644       647       649
       646       644       647       650       647       650       653       654
       647       650       653       655       647       650       653       656
       648       647       650       651       648       647       650       652
       648       647       650       653       649       647       650       651
       649       647       650       652       649       647       650       653
       650       653       656       657       650       653       656       658
       650       653       656       659       651       650       653       654
       651       650       653       655       651       650       653       656
       652       650       653       654       652       650       653       655
       652       650       653       656       653       656       659       660
       653       656       659       661       653       656       659       664
       654       653       656       657       654       653       656       658
       654       653       656       659       655       653       656       657
       655       653       656       658       655       653       656       659
       656       659       661       662       656       659       661       663
       656       659       661       664       656       659       664       661
       656       659       664       665       656       659       664       666
       657       656       659       660       657       656       659       661
       657       656       659       664       658       656       659       660
       658       656       659       661       658       656       659       664
       659       661       664       665       659       661       664       666
       659       664       661       662       659       664       661       663
       659       664       666       667       659       664       666       668
       659       664       666       669       660       659       661       662
       660       659       661       663       660       659       661       664
       660       659       664       661       660       659       664       665
       660       659       664       666       661       659       664       665
       661       659       664       666       661       664       666       667
       661       664       666       668       661       664       666       669
       662       661       659       664       662       661       664       665
       662       661       664       666       663       661       659       664
       663       661       664       665       663       661       664       666
       664       666       669       670       664       666       669       671
       664       666       669       672       665       664       666       667
       665       664       666       668       665       664       666       669
       666       669       672       673       666       669       672       674
       666       669       672       675       667       666       669       670
       667       666       669       671       667       666       669       672
       668       666       669       670       668       666       669       671
       668       666       669       672       669       672       675       676
       669       672       675       677       669       672       675       678
       670       669       672       673       670       669       672       674
       670       669       672       675       671       669       672       673
       671       669       672       674       671       669       672       675
       672       675       678       679       672       675       678       680
       672       675       678       681       673       672       675       676
       673       672       675       677       673       672       675       678
       674       672       675       676       674       672       675       677
       674       672       675       678       675       678       681       682
       675       678       681       683       675       678       681       684
       676       675       678       679       676       675       678       680
       676       675       678       681       677       675       678       679
       677       675       678       680       677       675       678       681
       679       678       681       682       679       678       681       683
       679       678       681       684       680       678       681       682
       680       678       681       683       680       678       681       684
       685       688       691       692       685       688       691       693
       685       688       691       694       686       685       688       689
       686       685       688       690       686       685       688       691
       687       685       688       689       687       685       688       690
       687       685       688       691       688       691       694       695
       688       691       694       696       688       691       694       697
       689       688       691       692       689       688       691       693
       689       688       691       694       690       688       691       692
       690       688       691       693       690       688       691       694
       691       694       697       698       691       694       697       699
       691       694       697       700       692       691       694       695
       692       691       694       696       692       691       694       697
       693       691       694       695       693       691       694       696
       693       691       694       697       694       697       700       701
       694       697       700       702       694       697       700       703
       695       694       697       698       695       694       697       699
       695       694       697       700       696       694       697       698
       696       694       697       699       696       694       697       700
       697       700       703       704       697       700       703       705
       697       700       703       706       698       697       700       701
       698       697       700       702       698       697       700       703
       699       697       700       701       699       697       700       702
       699       697       700       703       700       703       706       707
       700       703       706       708       700       703       706       709
       701       700       703       704       701       700       703       705
       701       700       703       706       702       700       703       704
       702       700       703       705       702       700       703       706
       703       706       709       710       703       706       709       711
       703       706       709       712       704       703       706       707
       704       703       706       708       704       703       706       709
       705       703       706       707       705       703       706       708
       705       703       706       709       706       709       712       713
       706       709       712       714       706       709       712       715
       707       706       709       710       707       706       709       711
       707       706       709       712       708       706       709       710
       708       706       709       711       708       706       709       712
       709       712       715       716       709       712       715       717
       709       712       715       718       710       709       712       713
       710       709       712       714       710       709       712       715
       711       709       712       713       711       709       712       714
       711       709       712       715       712       715       718       719
       712       715       718       720       712       715       718       721
       713       712       715       716       713       712       715       717
       713       712       715       718       714       712       715       716
       714       712       715       717       714       712       715       718
       715       718       721       722       715       718       721       723
       715       718       721       724       716       715       718       719
       716       715       718       720       716       715       718       721
       717       715       718       719       717       715       718       720
       717       715       718       721       718       721       724       725
       718       721       724       726       718       721       724       727
       719       718       721       722       719       718       721       723
       719       718       721       724       720       718       721       722
       720       718       721       723       720       718       721       724
       722       721       724       725       722       721       724       726
       722       721       724       727       723       721       724       725
       723       721       724       726       723       721       724       727
       728       733       735       736       728       733       737       738
       728       733       737       739       728       733       737       744
       729       728       731       732       729       728       733       734
       729       728       733       735       729       728       733       737
       730       728       731       732       730       728       733       734
       730       728       733       735       730       728       733       737
       731       728       733       734       731       728       733       735
       731       728       733       737       732       731       728       733
       733       737       744       740       734       733       735       736
       734       733       737       738       734       733       737       739
       734       733       737       744       735       733       737       738
       735       733       737       739       735       733       737       744
       736       735       733       737       737       744       740       741
       737       744       740       742       737       744       740       743
       738       737       744       740       739       737       744       740
       740       743       745       746       740       743       745       747
       740       743       745       748       741       740       743       745
       742       740       743       745       743       745       748       749
       743       745       748       750       743       745       748       756
       744       740       743       745       745       748       750       751
       745       748       756       757       745       748       756       758
       745       748       756       759       746       745       748       749
       746       745       748       750       746       745       748       756
       747       745       748       749       747       745       748       750
       747       745       748       756       748       750       751       752
       748       750       751       753       748       756       759       760
       749       748       750       751       749       748       756       757
       749       748       756       758       749       748       756       759
       750       748       756       757       750       748       756       758
       750       748       756       759       750       751       753       754
       750       751       753       755       750       751       753       765
       751       750       748       756       751       753       765       766
       751       753       765       767       751       753       765       768
       752       751       753       754       752       751       753       755
       752       751       753       765       753       765       768       769
       753       765       768       770       753       765       768       771
       754       753       765       766       754       753       765       767
       754       753       765       768       755       753       765       766
       755       753       765       767       755       753       765       768
       756       759       760       761       756       759       760       762
       757       756       759       760       758       756       759       760
       759       760       762       763       759       760       762       764
       759       760       762       809       760       762       809       810
       760       762       809       811       760       762       809       812
       761       760       762       763       761       760       762       764
       761       760       762       809       762       809       812       813
       762       809       812       814       762       809       812       815
       763       762       809       810       763       762       809       811
       763       762       809       812       764       762       809       810
       764       762       809       811       764       762       809       812
       765       768       771       772       765       768       771       773
       765       768       771       774       766       765       768       769
       766       765       768       770       766       765       768       771
       767       765       768       769       767       765       768       770
       767       765       768       771       768       771       774       775
       768       771       774       776       768       771       774       777
       769       768       771       772       769       768       771       773
       769       768       771       774       770       768       771       772
       770       768       771       773       770       768       771       774
       771       774       777       778       771       774       777       779
       771       774       777       780       772       771       774       775
       772       771       774       776       772       771       774       777
       773       771       774       775       773       771       774       776
       773       771       774       777       774       777       780       781
       774       777       780       782       774       777       780       783
       775       774       777       778       775       774       777       779
       775       774       777       780       776       774       777       778
       776       774       777       779       776       774       777       780
       777       780       783       784       777       780       783       785
       777       780       783       788       778       777       780       781
       778       777       780       782       778       777       780       783
       779       777       780       781       779       777       780       782
       779       777       780       783       780       783       785       786
       780       783       785       787       780       783       785       788
       780       783       788       785       780       783       788       789
       780       783       788       790       781       780       783       784
       781       780       783       785       781       780       783       788
       782       780       783       784       782       780       783       785
       782       780       783       788       783       785       788       789
       783       785       788       790       783       788       785       786
       783       788       785       787       783       788       790       791
       783       788       790       792       783       788       790       793
       784       783       785       786       784       783       785       787
       784       783       785       788       784       783       788       785
       784       783       788       789       784       783       788       790
       785       783       788       789       785       783       788       790
       785       788       790       791       785       788       790       792
       785       788       790       793       786       785       783       788
       786       785       788       789       786       785       788       790
       787       785       783       788       787       785       788       789
       787       785       788       790       788       790       793       794
       788       790       793       795       788       790       793       796
       789       788       790       791       789       788       790       792
       789       788       790       793       790       793       796       797
       790       793       796       798       790       793       796       799
       791       790       793       794       791       790       793       795
       791       790       793       796       792       790       793       794
       792       790       793       795       792       790       793       796
       793       796       799       800       793       796       799       801
       793       796       799       802       794       793       796       797
       794       793       796       798       794       793       796       799
       795       793       796       797       795       793       796       798
       795       793       796       799       796       799       802       803
       796       799       802       804       796       799       802       805
       797       796       799       800       797       796       799       801
       797       796       799       802       798       796       799       800
       798       796       799       801       798       796       799       802
       799       802       805       806       799       802       805       807
       799       802       805       808       800       799       802       803
       800       799       802       804       800       799       802       805
       801       799       802       803       801       799       802       804
       801       799       802       805       803       802       805       806
       803       802       805       807       803       802       805       808
       804       802       805       806       804       802       805       807
       804       802       805       808       809       812       815       816
       809       812       815       817       809       812       815       818
       810       809       812       813       810       809       812       814
       810       809       812       815       811       809       812       813
       811       809       812       814       811       809       812       815
       812       815       818       819       812       815       818       820
       812       815       818       821       813       812       815       816
       813       812       815       817       813       812       815       818
       814       812       815       816       814       812       815       817
       814       812       815       818       815       818       821       822
       815       818       821       823       815       818       821       824
       816       815       818       819       816       815       818       820
       816       815       818       821       817       815       818       819
       817       815       818       820       817       815       818       821
       818       821       824       825       818       821       824       826
       818       821       824       827       819       818       821       822
       819       818       821       823       819       818       821       824
       820       818       821       822       820       818       821       823
       820       818       821       824       821       824       827       828
       821       824       827       829       821       824       827       830
       822       821       824       825       822       821       824       826
       822       821       824       827       823       821       824       825
       823       821       824       826       823       821       824       827
       824       827       830       831       824       827       830       832
       824       827       830       833       825       824       827       828
       825       824       827       829       825       824       827       830
       826       824       827       828       826       824       827       829
       826       824       827       830       827       830       833       834
       827       830       833       835       827       830       833       836
       828       827       830       831       828       827       830       832
       828       827       830       833       829       827       830       831
       829       827       830       832       829       827       830       833
       830       833       836       837       830       833       836       838
       830       833       836       839       831       830       833       834
       831       830       833       835       831       830       833       836
       832       830       833       834       832       830       833       835
       832       830       833       836       833       836       839       840
       833       836       839       841       833       836       839       842
       834       833       836       837       834       833       836       838
       834       833       836       839       835       833       836       837
       835       833       836       838       835       833       836       839
       836       839       842       843       836       839       842       844
       836       839       842       845       837       836       839       840
       837       836       839       841       837       836       839       842
       838       836       839       840       838       836       839       841
       838       836       839       842       839       842       845       846
       839       842       845       847       839       842       845       848
       840       839       842       843       840       839       842       844
       840       839       842       845       841       839       842       843
       841       839       842       844       841       839       842       845
       842       845       848       849       842       845       848       850
       842       845       848       851       843       842       845       846
       843       842       845       847       843       842       845       848
       844       842       845       846       844       842       845       847
       844       842       845       848       846       845       848       849
       846       845       848       850       846       845       848       851
       847       845       848       849       847       845       848       850
       847       845       848       851       852       857       859       860
       852       857       861       862       852       857       861       863
       852       857       861       868       853       852       855       856
       853       852       857       858       853       852       857       859
       853       852       857       861       854       852       855       856
       854       852       857       858       854       852       857       859
       854       852       857       861       855       852       857       858
       855       852       857       859       855       852       857       861
       856       855       852       857       857       861       868       864
       858       857       859       860       858       857       861       862
       858       857       861       863       858       857       861       868
       859       857       861       862       859       857       861       863
       859       857       861       868       860       859       857       861
       861       868       864       865       861       868       864       866
       861       868       864       867       862       861       868       864
       863       861       868       864       864       867       869       870
       864       867       869       871       864       867       869       872
       865       864       867       869       866       864       867       869
       867       869       872       873       867       869       872       874
       867       869       872       880       868       864       867       869
       869       872       874       875       869       872       880       881
       869       872       880       882       869       872       880       883
       870       869       872       873       870       869       872       874
       870       869       872       880       871       869       872       873
       871       869       872       874       871       869       872       880
       872       874       875       876       872       874       875       877
       872       880       883       884       873       872       874       875
       873       872       880       881       873       872       880       882
       873       872       880       883       874       872       880       881
       874       872       880       882       874       872       880       883
       874       875       877       878       874       875       877       879
       874       875       877       889       875       874       872       880
       875       877       889       890       875       877       889       891
       875       877       889       892       876       875       877       878
       876       875       877       879       876       875       877       889
       877       889       892       893       877       889       892       894
       877       889       892       895       878       877       889       890
       878       877       889       891       878       877       889       892
       879       877       889       890       879       877       889       891
       879       877       889       892       880       883       884       885
       880       883       884       886       881       880       883       884
       882       880       883       884       883       884       886       887
       883       884       886       888       883       884       886       930
       884       886       930       931       884       886       930       932
       884       886       930       933       885       884       886       887
       885       884       886       888       885       884       886       930
       886       930       933       934       886       930       933       935
       886       930       933       936       887       886       930       931
       887       886       930       932       887       886       930       933
       888       886       930       931       888       886       930       932
       888       886       930       933       889       892       895       896
       889       892       895       897       889       892       895       898
       890       889       892       893       890       889       892       894
       890       889       892       895       891       889       892       893
       891       889       892       894       891       889       892       895
       892       895       898       899       892       895       898       900
       892       895       898       901       893       892       895       896
       893       892       895       897       893       892       895       898
       894       892       895       896       894       892       895       897
       894       892       895       898       895       898       901       902
       895       898       901       903       895       898       901       904
       896       895       898       899       896       895       898       900
       896       895       898       901       897       895       898       899
       897       895       898       900       897       895       898       901
       898       901       904       905       898       901       904       906
       898       901       904       907       899       898       901       902
       899       898       901       903       899       898       901       904
       900       898       901       902       900       898       901       903
       900       898       901       904       901       904       907       908
       901       904       907       909       902       901       904       905
       902       901       904       906       902       901       904       907
       903       901       904       905       903       901       904       906
       903       901       904       907       904       907       909       910
       904       907       909       911       905       904       907       908
       905       904       907       909       906       904       907       908
       906       904       907       909       907       909       911       912
       907       909       911       913       907       909       911       914
       908       907       909       910       908       907       909       911
       909       911       914       915       909       911       914       916
       909       911       914       917       910       909       911       912
       910       909       911       913       910       909       911       914
       911       914       917       918       911       914       917       919
       911       914       917       920       912       911       914       915
       912       911       914       916       912       911       914       917
       913       911       914       915       913       911       914       916
       913       911       914       917       914       917       920       921
       914       917       920       922       914       917       920       923
       915       914       917       918       915       914       917       919
       915       914       917       920       916       914       917       918
       916       914       917       919       916       914       917       920
       917       920       923       924       917       920       923       925
       917       920       923       926       918       917       920       921
       918       917       920       922       918       917       920       923
       919       917       920       921       919       917       920       922
       919       917       920       923       920       923       926       927
       920       923       926       928       920       923       926       929
       921       920       923       924       921       920       923       925
       921       920       923       926       922       920       923       924
       922       920       923       925       922       920       923       926
       924       923       926       927       924       923       926       928
       924       923       926       929       925       923       926       927
       925       923       926       928       925       923       926       929
       930       933       936       937       930       933       936       938
       930       933       936       939       931       930       933       934
       931       930       933       935       931       930       933       936
       932       930       933       934       932       930       933       935
       932       930       933       936       933       936       939       940
       933       936       939       941       933       936       939       942
       934       933       936       937       934       933       936       938
       934       933       936       939       935       933       936       937
       935       933       936       938       935       933       936       939
       936       939       942       943       936       939       942       944
       936       939       942       945       937       936       939       940
       937       936       939       941       937       936       939       942
       938       936       939       940       938       936       939       941
       938       936       939       942       939       942       945       946
       939       942       945       947       939       942       945       948
       940       939       942       943       940       939       942       944
       940       939       942       945       941       939       942       943
       941       939       942       944       941       939       942       945
       942       945       948       949       942       945       948       950
       942       945       948       951       943       942       945       946
       943       942       945       947       943       942       945       948
       944       942       945       946       944       942       945       947
       944       942       945       948       945       948       951       952
       945       948       951       953       945       948       951       954
       946       945       948       949       946       945       948       950
       946       945       948       951       947       945       948       949
       947       945       948       950       947       945       948       951
       948       951       954       955       948       951       954       956
       948       951       954       957       949       948       951       952
       949       948       951       953       949       948       951       954
       950       948       951       952       950       948       951       953
       950       948       951       954       951       954       957       958
       951       954       957       959       951       954       957       960
       952       951       954       955       952       951       954       956
       952       951       954       957       953       951       954       955
       953       951       954       956       953       951       954       957
       954       957       960       961       954       957       960       962
       954       957       960       963       955       954       957       958
       955       954       957       959       955       954       957       960
       956       954       957       958       956       954       957       959
       956       954       957       960       957       960       963       964
       957       960       963       965       957       960       963       966
       958       957       960       961       958       957       960       962
       958       957       960       963       959       957       960       961
       959       957       960       962       959       957       960       963
       960       963       966       967       960       963       966       968
       960       963       966       969       961       960       963       964
       961       960       963       965       961       960       963       966
       962       960       963       964       962       960       963       965
       962       960       963       966       963       966       969       970
       963       966       969       971       963       966       969       972
       964       963       966       967       964       963       966       968
       964       963       966       969       965       963       966       967
       965       963       966       968       965       963       966       969
       967       966       969       970       967       966       969       971
       967       966       969       972       968       966       969       970
       968       966       969       971       968       966       969       972
       973       977       980       981       973       977       980       982
       973       977       980       987       974       973       977       978
       974       973       977       979       974       973       977       980
       975       973       977       978       975       973       977       979
       975       973       977       980       976       973       977       978
       976       973       977       979       976       973       977       980
       977       980       987       983       978       977       980       981
       978       977       980       982       978       977       980       987
       979       977       980       981       979       977       980       982
       979       977       980       987       980       987       983       984
       980       987       983       985       980       987       983       986
       981       980       987       983       982       980       987       983
       983       986       988       989       983       986       988       990
       983       986       988       991       984       983       986       988
       985       983       986       988       986       988       991       992
       986       988       991       993       986       988       991       999
       987       983       986       988       988       991       993       994
       988       991       999      1000       988       991       999      1001
       988       991       999      1002       989       988       991       992
       989       988       991       993       989       988       991       999
       990       988       991       992       990       988       991       993
       990       988       991       999       991       993       994       995
       991       993       994       996       991       999      1002      1003
       992       991       993       994       992       991       999      1000
       992       991       999      1001       992       991       999      1002
       993       991       999      1000       993       991       999      1001
       993       991       999      1002       993       994       996       997
       993       994       996       998       993       994       996      1008
       994       993       991       999       994       996      1008      1009
       994       996      1008      1010       994       996      1008      1011
       995       994       996       997       995       994       996       998
       995       994       996      1008       996      1008      1011      1012
       996      1008      1011      1013       996      1008      1011      1014
       997       996      1008      1009       997       996      1008      1010
       997       996      1008      1011       998       996      1008      1009
       998       996      1008      1010       998       996      1008      1011
       999      1002      1003      1004       999      1002      1003      1005
      1000       999      1002      1003      1001       999      1002      1003
      1002      1003      1005      1006      1002      1003      1005      1007
      1002      1003      1005      1052      1003      1005      1052      1053
      1003      1005      1052      1054      1003      1005      1052      1055
      1004      1003      1005      1006      1004      1003      1005      1007
      1004      1003      1005      1052      1005      1052      1055      1056
      1005      1052      1055      1057      1005      1052      1055      1058
      1006      1005      1052      1053      1006      1005      1052      1054
      1006      1005      1052      1055      1007      1005      1052      1053
      1007      1005      1052      1054      1007      1005      1052      1055
      1008      1011      1014      1015      1008      1011      1014      1016
      1008      1011      1014      1017      1009      1008      1011      1012
      1009      1008      1011      1013      1009      1008      1011      1014
      1010      1008      1011      1012      1010      1008      1011      1013
      1010      1008      1011      1014      1011      1014      1017      1018
      1011      1014      1017      1019      1011      1014      1017      1020
      1012      1011      1014      1015      1012      1011      1014      1016
      1012      1011      1014      1017      1013      1011      1014      1015
      1013      1011      1014      1016      1013      1011      1014      1017
      1014      1017      1020      1021      1014      1017      1020      1022
      1014      1017      1020      1023      1015      1014      1017      1018
      1015      1014      1017      1019      1015      1014      1017      1020
      1016      1014      1017      1018      1016      1014      1017      1019
      1016      1014      1017      1020      1017      1020      1023      1024
      1017      1020      1023      1025      1017      1020      1023      1026
      1018      1017      1020      1021      1018      1017      1020      1022
      1018      1017      1020      1023      1019      1017      1020      1021
      1019      1017      1020      1022      1019      1017      1020      1023
      1020      1023      1026      1027      1020      1023      1026      1028
      1020      1023      1026      1031      1021      1020      1023      1024
      1021      1020      1023      1025      1021      1020      1023      1026
      1022      1020      1023      1024      1022      1020      1023      1025
      1022      1020      1023      1026      1023      1026      1028      1029
      1023      1026      1028      1030      1023      1026      1028      1031
      1023      1026      1031      1028      1023      1026      1031      1032
      1023      1026      1031      1033      1024      1023      1026      1027
      1024      1023      1026      1028      1024      1023      1026      1031
      1025      1023      1026      1027      1025      1023      1026      1028
      1025      1023      1026      1031      1026      1028      1031      1032
      1026      1028      1031      1033      1026      1031      1028      1029
      1026      1031      1028      1030      1026      1031      1033      1034
      1026      1031      1033      1035      1026      1031      1033      1036
      1027      1026      1028      1029      1027      1026      1028      1030
      1027      1026      1028      1031      1027      1026      1031      1028
      1027      1026      1031      1032      1027      1026      1031      1033
      1028      1026      1031      1032      1028      1026      1031      1033
      1028      1031      1033      1034      1028      1031      1033      1035
      1028      1031      1033      1036      1029      1028      1026      1031
      1029      1028      1031      1032      1029      1028      1031      1033
      1030      1028      1026      1031      1030      1028      1031      1032
      1030      1028      1031      1033      1031      1033      1036      1037
      1031      1033      1036      1038      1031      1033      1036      1039
      1032      1031      1033      1034      1032      1031      1033      1035
      1032      1031      1033      1036      1033      1036      1039      1040
      1033      1036      1039      1041      1033      1036      1039      1042
      1034      1033      1036      1037      1034      1033      1036      1038
      1034      1033      1036      1039      1035      1033      1036      1037
      1035      1033      1036      1038      1035      1033      1036      1039
      1036      1039      1042      1043      1036      1039      1042      1044
      1036      1039      1042      1045      1037      1036      1039      1040
      1037      1036      1039      1041      1037      1036      1039      1042
      1038      1036      1039      1040      1038      1036      1039      1041
      1038      1036      1039      1042      1039      1042      1045      1046
      1039      1042      1045      1047      1039      1042      1045      1048
      1040      1039      1042      1043      1040      1039      1042      1044
      1040      1039      1042      1045      1041      1039      1042      1043
      1041      1039      1042      1044      1041      1039      1042      1045
      1042      1045      1048      1049      1042      1045      1048      1050
      1042      1045      1048      1051      1043      1042      1045      1046
      1043      1042      1045      1047      1043      1042      1045      1048
      1044      1042      1045      1046      1044      1042      1045      1047
      1044      1042      1045      1048      1046      1045      1048      1049
      1046      1045      1048      1050      1046      1045      1048      1051
      1047      1045      1048      1049      1047      1045      1048      1050
      1047      1045      1048      1051      1052      1055      1058      1059
      1052      1055      1058      1060      1052      1055      1058      1061
      1053      1052      1055      1056      1053      1052      1055      1057
      1053      1052      1055      1058      1054      1052      1055      1056
      1054      1052      1055      1057      1054      1052      1055      1058
      1055      1058      1061      1062      1055      1058      1061      1063
      1055      1058      1061      1064      1056      1055      1058      1059
      1056      1055      1058      1060      1056      1055      1058      1061
      1057      1055      1058      1059      1057      1055      1058      1060
      1057      1055      1058      1061      1058      1061      1064      1065
      1058      1061      1064      1066      1058      1061      1064      1067
      1059      1058      1061      1062      1059      1058      1061      1063
      1059      1058      1061      1064      1060      1058      1061      1062
      1060      1058      1061      1063      1060      1058      1061      1064
      1061      1064      1067      1068      1061      1064      1067      1069
      1061      1064      1067      1070      1062      1061      1064      1065
      1062      1061      1064      1066      1062      1061      1064      1067
      1063      1061      1064      1065      1063      1061      1064      1066
      1063      1061      1064      1067      1064      1067      1070      1071
      1064      1067      1070      1072      1064      1067      1070      1073
      1065      1064      1067      1068      1065      1064      1067      1069
      1065      1064      1067      1070      1066      1064      1067      1068
      1066      1064      1067      1069      1066      1064      1067      1070
      1067      1070      1073      1074      1067      1070      1073      1075
      1067      1070      1073      1076      1068      1067      1070      1071
      1068      1067      1070      1072      1068      1067      1070      1073
      1069      1067      1070      1071      1069      1067      1070      1072
      1069      1067      1070      1073      1070      1073      1076      1077
      1070      1073      1076      1078      1070      1073      1076      1079
      1071      1070      1073      1074      1071      1070      1073      1075
      1071      1070      1073      1076      1072      1070      1073      1074
      1072      1070      1073      1075      1072      1070      1073      1076
      1073      1076      1079      1080      1073      1076      1079      1081
      1073      1076      1079      1082      1074      1073      1076      1077
      1074      1073      1076      1078      1074      1073      1076      1079
      1075      1073      1076      1077      1075      1073      1076      1078
      1075      1073      1076      1079      1076      1079      1082      1083
      1076      1079      1082      1084      1076      1079      1082      1085
      1077      1076      1079      1080      1077      1076      1079      1081
      1077      1076      1079      1082      1078      1076      1079      1080
      1078      1076      1079      1081      1078      1076      1079      1082
      1079      1082      1085      1086      1079      1082      1085      1087
      1079      1082      1085      1088      1080      1079      1082      1083
      1080      1079      1082      1084      1080      1079      1082      1085
      1081      1079      1082      1083      1081      1079      1082      1084
      1081      1079      1082      1085      1082      1085      1088      1089
      1082      1085      1088      1090      1082      1085      1088      1091
      1083      1082      1085      1086      1083      1082      1085      1087
      1083      1082      1085      1088      1084      1082      1085      1086
      1084      1082      1085      1087      1084      1082      1085      1088
      1085      1088      1091      1092      1085      1088      1091      1093
      1085      1088      1091      1094      1086      1085      1088      1089
      1086      1085      1088      1090      1086      1085      1088      1091
      1087      1085      1088      1089      1087      1085      1088      1090
      1087      1085      1088      1091      1089      1088      1091      1092
      1089      1088      1091      1093      1089      1088      1091      1094
      1090      1088      1091      1092      1090      1088      1091      1093
      1090      1088      1091      1094      1095      1099      1102      1103
      1095      1099      1102      1104      1095      1099      1102      1109
      1096      1095      1099      1100      1096      1095      1099      1101
      1096      1095      1099      1102      1097      1095      1099      1100
      1097      1095      1099      1101      1097      1095      1099      1102
      1098      1095      1099      1100      1098      1095      1099      1101
      1098      1095      1099      1102      1099      1102      1109      1105
      1100      1099      1102      1103      1100      1099      1102      1104
      1100      1099      1102      1109      1101      1099      1102      1103
      1101      1099      1102      1104      1101      1099      1102      1109
      1102      1109      1105      1106      1102      1109      1105      1107
      1102      1109      1105      1108      1103      1102      1109      1105
      1104      1102      1109      1105      1105      1108      1110      1111
      1105      1108      1110      1112      1105      1108      1110      1113
      1106      1105      1108      1110      1107      1105      1108      1110
      1108      1110      1113      1114      1108      1110      1113      1115
      1108      1110      1113      1121      1109      1105      1108      1110
      1110      1113      1115      1116      1110      1113      1121      1122
      1110      1113      1121      1123      1110      1113      1121      1124
      1111      1110      1113      1114      1111      1110      1113      1115
      1111      1110      1113      1121      1112      1110      1113      1114
      1112      1110      1113      1115      1112      1110      1113      1121
      1113      1115      1116      1117      1113      1115      1116      1118
      1113      1121      1124      1125      1114      1113      1115      1116
      1114      1113      1121      1122      1114      1113      1121      1123
      1114      1113      1121      1124      1115      1113      1121      1122
      1115      1113      1121      1123      1115      1113      1121      1124
      1115      1116      1118      1119      1115      1116      1118      1120
      1115      1116      1118      1130      1116      1115      1113      1121
      1116      1118      1130      1131      1116      1118      1130      1132
      1116      1118      1130      1133      1117      1116      1118      1119
      1117      1116      1118      1120      1117      1116      1118      1130
      1118      1130      1133      1134      1118      1130      1133      1135
      1118      1130      1133      1136      1119      1118      1130      1131
      1119      1118      1130      1132      1119      1118      1130      1133
      1120      1118      1130      1131      1120      1118      1130      1132
      1120      1118      1130      1133      1121      1124      1125      1126
      1121      1124      1125      1127      1122      1121      1124      1125
      1123      1121      1124      1125      1124      1125      1127      1128
      1124      1125      1127      1129      1124      1125      1127      1177
      1125      1127      1177      1178      1125      1127      1177      1179
      1125      1127      1177      1180      1126      1125      1127      1128
      1126      1125      1127      1129      1126      1125      1127      1177
      1127      1177      1180      1181      1127      1177      1180      1182
      1127      1177      1180      1183      1128      1127      1177      1178
      1128      1127      1177      1179      1128      1127      1177      1180
      1129      1127      1177      1178      1129      1127      1177      1179
      1129      1127      1177      1180      1130      1133      1136      1137
      1130      1133      1136      1138      1130      1133      1136      1139
      1131      1130      1133      1134      1131      1130      1133      1135
      1131      1130      1133      1136      1132      1130      1133      1134
      1132      1130      1133      1135      1132      1130      1133      1136
      1133      1136      1139      1140      1133      1136      1139      1141
      1133      1136      1139      1142      1134      1133      1136      1137
      1134      1133      1136      1138      1134      1133      1136      1139
      1135      1133      1136      1137      1135      1133      1136      1138
      1135      1133      1136      1139      1136      1139      1142      1143
      1136      1139      1142      1144      1136      1139      1142      1145
      1137      1136      1139      1140      1137      1136      1139      1141
      1137      1136      1139      1142      1138      1136      1139      1140
      1138      1136      1139      1141      1138      1136      1139      1142
      1139      1142      1145      1146      1139      1142      1145      1147
      1139      1142      1145      1148      1140      1139      1142      1143
      1140      1139      1142      1144      1140      1139      1142      1145
      1141      1139      1142      1143      1141      1139      1142      1144
      1141      1139      1142      1145      1142      1145      1148      1149
      1142      1145      1148      1150      1143      1142      1145      1146
      1143      1142      1145      1147      1143      1142      1145      1148
      1144      1142      1145      1146      1144      1142      1145      1147
      1144      1142      1145      1148      1145      1148      1150      1151
      1145      1148      1150      1152      1146      1145      1148      1149
      1146      1145      1148      1150      1147      1145      1148      1149
      1147      1145      1148      1150      1148      1150      1152      1153
      1148      1150      1152      1154      1148      1150      1152      1155
      1149      1148      1150      1151      1149      1148      1150      1152
      1150      1152      1155      1156      1150      1152      1155      1157
      1150      1152      1155      1158      1151      1150      1152      1153
      1151      1150      1152      1154      1151      1150      1152      1155
      1152      1155      1158      1159      1152      1155      1158      1160
      1152      1155      1158      1161      1153      1152      1155      1156
      1153      1152      1155      1157      1153      1152      1155      1158
      1154      1152      1155      1156      1154      1152      1155      1157
      1154      1152      1155      1158      1155      1158      1161      1162
      1155      1158      1161      1163      1155      1158      1161      1164
      1156      1155      1158      1159      1156      1155      1158      1160
      1156      1155      1158      1161      1157      1155      1158      1159
      1157      1155      1158      1160      1157      1155      1158      1161
      1158      1161      1164      1165      1158      1161      1164      1166
      1158      1161      1164      1167      1159      1158      1161      1162
      1159      1158      1161      1163      1159      1158      1161      1164
      1160      1158      1161      1162      1160      1158      1161      1163
      1160      1158      1161      1164      1161      1164      1167      1168
      1161      1164      1167      1169      1161      1164      1167      1170
      1162      1161      1164      1165      1162      1161      1164      1166
      1162      1161      1164      1167      1163      1161      1164      1165
      1163      1161      1164      1166      1163      1161      1164      1167
      1164      1167      1170      1171      1164      1167      1170      1172
      1164      1167      1170      1173      1165      1164      1167      1168
      1165      1164      1167      1169      1165      1164      1167      1170
      1166      1164      1167      1168      1166      1164      1167      1169
      1166      1164      1167      1170      1167      1170      1173      1174
      1167      1170      1173      1175      1167      1170      1173      1176
      1168      1167      1170      1171      1168      1167      1170      1172
      1168      1167      1170      1173      1169      1167      1170      1171
      1169      1167      1170      1172      1169      1167      1170      1173
      1171      1170      1173      1174      1171      1170      1173      1175
      1171      1170      1173      1176      1172      1170      1173      1174
      1172      1170      1173      1175      1172      1170      1173      1176
      1177      1180      1183      1184      1177      1180      1183      1185
      1177      1180      1183      1186      1178      1177      1180      1181
      1178      1177      1180      1182      1178      1177      1180      1183
      1179      1177      1180      1181      1179      1177      1180      1182
      1179      1177      1180      1183      1180      1183      1186      1187
      1180      1183      1186      1188      1180      1183      1186      1189
      1181      1180      1183      1184      1181      1180      1183      1185
      1181      1180      1183      1186      1182      1180      1183      1184
      1182      1180      1183      1185      1182      1180      1183      1186
      1183      1186      1189      1190      1183      1186      1189      1191
      1183      1186      1189      1192      1184      1183      1186      1187
      1184      1183      1186      1188      1184      1183      1186      1189
      1185      1183      1186      1187      1185      1183      1186      1188
      1185      1183      1186      1189      1186      1189      1192      1193
      1186      1189      1192      1194      1186      1189      1192      1195
      1187      1186      1189      1190      1187      1186      1189      1191
      1187      1186      1189      1192      1188      1186      1189      1190
      1188      1186      1189      1191      1188      1186      1189      1192
      1189      1192      1195      1196      1189      1192      1195      1197
      1189      1192      1195      1198      1190      1189      1192      1193
      1190      1189      1192      1194      1190      1189      1192      1195
      1191      1189      1192      1193      1191      1189      1192      1194
      1191      1189      1192      1195      1192      1195      1198      1199
      1192      1195      1198      1200      1192      1195      1198      1201
      1193      1192      1195      1196      1193      1192      1195      1197
      1193      1192      1195      1198      1194      1192      1195      1196
      1194      1192      1195      1197      1194      1192      1195      1198
      1195      1198      1201      1202      1195      1198      1201      1203
      1195      1198      1201      1204      1196      1195      1198      1199
      1196      1195      1198      1200      1196      1195      1198      1201
      1197      1195      1198      1199      1197      1195      1198      1200
      1197      1195      1198      1201      1198      1201      1204      1205
      1198      1201      1204      1206      1198      1201      1204      1207
      1199      1198      1201      1202      1199      1198      1201      1203
      1199      1198      1201      1204      1200      1198      1201      1202
      1200      1198      1201      1203      1200      1198      1201      1204
      1201      1204      1207      1208      1201      1204      1207      1209
      1201      1204      1207      1210      1202      1201      1204      1205
      1202      1201      1204      1206      1202      1201      1204      1207
      1203      1201      1204      1205      1203      1201      1204      1206
      1203      1201      1204      1207      1204      1207      1210      1211
      1204      1207      1210      1212      1204      1207      1210      1213
      1205      1204      1207      1208      1205      1204      1207      1209
      1205      1204      1207      1210      1206      1204      1207      1208
      1206      1204      1207      1209      1206      1204      1207      1210
      1207      1210      1213      1214      1207      1210      1213      1215
      1207      1210      1213      1216      1208      1207      1210      1211
      1208      1207      1210      1212      1208      1207      1210      1213
      1209      1207      1210      1211      1209      1207      1210      1212
      1209      1207      1210      1213      1210      1213      1216      1217
      1210      1213      1216      1218      1210      1213      1216      1219
      1211      1210      1213      1214      1211      1210      1213      1215
      1211      1210      1213      1216      1212      1210      1213      1214
      1212      1210      1213      1215      1212      1210      1213      1216
      1214      1213      1216      1217      1214      1213      1216      1218
      1214      1213      1216      1219      1215      1213      1216      1217
      1215      1213      1216      1218      1215      1213      1216      1219
      1220      1224      1227      1228      1220      1224      1227      1229
      1220      1224      1227      1234      1221      1220      1224      1225
      1221      1220      1224      1226      1221      1220      1224      1227
      1222      1220      1224      1225      1222      1220      1224      1226
      1222      1220      1224      1227      1223      1220      1224      1225
      1223      1220      1224      1226      1223      1220      1224      1227
      1224      1227      1234      1230      1225      1224      1227      1228
      1225      1224      1227      1229      1225      1224      1227      1234
      1226      1224      1227      1228      1226      1224      1227      1229
      1226      1224      1227      1234      1227      1234      1230      1231
      1227      1234      1230      1232      1227      1234      1230      1233
      1228      1227      1234      1230      1229      1227      1234      1230
      1230      1233      1235      1236      1230      1233      1235      1237
      1230      1233      1235      1238      1231      1230      1233      1235
      1232      1230      1233      1235      1233      1235      1238      1239
      1233      1235      1238      1240      1233      1235      1238      1246
      1234      1230      1233      1235      1235      1238      1240      1241
      1235      1238      1246      1247      1235      1238      1246      1248
      1235      1238      1246      1249      1236      1235      1238      1239
      1236      1235      1238      1240      1236      1235      1238      1246
      1237      1235      1238      1239      1237      1235      1238      1240
      1237      1235      1238      1246      1238      1240      1241      1242
      1238      1240      1241      1243      1238      1246      1249      1250
      1239      1238      1240      1241      1239      1238      1246      1247
      1239      1238      1246      1248      1239      1238      1246      1249
      1240      1238      1246      1247      1240      1238      1246      1248
      1240      1238      1246      1249      1240      1241      1243      1244
      1240      1241      1243      1245      1240      1241      1243      1255
      1241      1240      1238      1246      1241      1243      1255      1256
      1241      1243      1255      1257      1241      1243      1255      1258
      1242      1241      1243      1244      1242      1241      1243      1245
      1242      1241      1243      1255      1243      1255      1258      1259
      1243      1255      1258      1260      1243      1255      1258      1261
      1244      1243      1255      1256      1244      1243      1255      1257
      1244      1243      1255      1258      1245      1243      1255      1256
      1245      1243      1255      1257      1245      1243      1255      1258
      1246      1249      1250      1251      1246      1249      1250      1252
      1247      1246      1249      1250      1248      1246      1249      1250
      1249      1250      1252      1253      1249      1250      1252      1254
      1249      1250      1252      1299      1250      1252      1299      1300
      1250      1252      1299      1301      1250      1252      1299      1302
      1251      1250      1252      1253      1251      1250      1252      1254
      1251      1250      1252      1299      1252      1299      1302      1303
      1252      1299      1302      1304      1252      1299      1302      1305
      1253      1252      1299      1300      1253      1252      1299      1301
      1253      1252      1299      1302      1254      1252      1299      1300
      1254      1252      1299      1301      1254      1252      1299      1302
      1255      1258      1261      1262      1255      1258      1261      1263
      1255      1258      1261      1264      1256      1255      1258      1259
      1256      1255      1258      1260      1256      1255      1258      1261
      1257      1255      1258      1259      1257      1255      1258      1260
      1257      1255      1258      1261      1258      1261      1264      1265
      1258      1261      1264      1266      1258      1261      1264      1267
      1259      1258      1261      1262      1259      1258      1261      1263
      1259      1258      1261      1264      1260      1258      1261      1262
      1260      1258      1261      1263      1260      1258      1261      1264
      1261      1264      1267      1268      1261      1264      1267      1269
      1261      1264      1267      1270      1262      1261      1264      1265
      1262      1261      1264      1266      1262      1261      1264      1267
      1263      1261      1264      1265      1263      1261      1264      1266
      1263      1261      1264      1267      1264      1267      1270      1271
      1264      1267      1270      1272      1264      1267      1270      1273
      1265      1264      1267      1268      1265      1264      1267      1269
      1265      1264      1267      1270      1266      1264      1267      1268
      1266      1264      1267      1269      1266      1264      1267      1270
      1267      1270      1273      1274      1267      1270      1273      1275
      1267      1270      1273      1278      1268      1267      1270      1271
      1268      1267      1270      1272      1268      1267      1270      1273
      1269      1267      1270      1271      1269      1267      1270      1272
      1269      1267      1270      1273      1270      1273      1275      1276
      1270      1273      1275      1277      1270      1273      1275      1278
      1270      1273      1278      1275      1270      1273      1278      1279
      1270      1273      1278      1280      1271      1270      1273      1274
      1271      1270      1273      1275      1271      1270      1273      1278
      1272      1270      1273      1274      1272      1270      1273      1275
      1272      1270      1273      1278      1273      1275      1278      1279
      1273      1275      1278      1280      1273      1278      1275      1276
      1273      1278      1275      1277      1273      1278      1280      1281
      1273      1278      1280      1282      1273      1278      1280      1283
      1274      1273      1275      1276      1274      1273      1275      1277
      1274      1273      1275      1278      1274      1273      1278      1275
      1274      1273      1278      1279      1274      1273      1278      1280
      1275      1273      1278      1279      1275      1273      1278      1280
      1275      1278      1280      1281      1275      1278      1280      1282
      1275      1278      1280      1283      1276      1275      1273      1278
      1276      1275      1278      1279      1276      1275      1278      1280
      1277      1275      1273      1278      1277      1275      1278      1279
      1277      1275      1278      1280      1278      1280      1283      1284
      1278      1280      1283      1285      1278      1280      1283      1286
      1279      1278      1280      1281      1279      1278      1280      1282
      1279      1278      1280      1283      1280      1283      1286      1287
      1280      1283      1286      1288      1280      1283      1286      1289
      1281      1280      1283      1284      1281      1280      1283      1285
      1281      1280      1283      1286      1282      1280      1283      1284
      1282      1280      1283      1285      1282      1280      1283      1286
      1283      1286      1289      1290      1283      1286      1289      1291
      1283      1286      1289      1292      1284      1283      1286      1287
      1284      1283      1286      1288      1284      1283      1286      1289
      1285      1283      1286      1287      1285      1283      1286      1288
      1285      1283      1286      1289      1286      1289      1292      1293
      1286      1289      1292      1294      1286      1289      1292      1295
      1287      1286      1289      1290      1287      1286      1289      1291
      1287      1286      1289      1292      1288      1286      1289      1290
      1288      1286      1289      1291      1288      1286      1289      1292
      1289      1292      1295      1296      1289      1292      1295      1297
      1289      1292      1295      1298      1290      1289      1292      1293
      1290      1289      1292      1294      1290      1289      1292      1295
      1291      1289      1292      1293      1291      1289      1292      1294
      1291      1289      1292      1295      1293      1292      1295      1296
      1293      1292      1295      1297      1293      1292      1295      1298
      1294      1292      1295      1296      1294      1292      1295      1297
      1294      1292      1295      1298      1299      1302      1305      1306
      1299      1302      1305      1307      1299      1302      1305      1308
      1300      1299      1302      1303      1300      1299      1302      1304
      1300      1299      1302      1305      1301      1299      1302      1303
      1301      1299      1302      1304      1301      1299      1302      1305
      1302      1305      1308      1309      1302      1305      1308      1310
      1302      1305      1308      1311      1303      1302      1305      1306
      1303      1302      1305      1307      1303      1302      1305      1308
      1304      1302      1305      1306      1304      1302      1305      1307
      1304      1302      1305      1308      1305      1308      1311      1312
      1305      1308      1311      1313      1305      1308      1311      1314
      1306      1305      1308      1309      1306      1305      1308      1310
      1306      1305      1308      1311      1307      1305      1308      1309
      1307      1305      1308      1310      1307      1305      1308      1311
      1308      1311      1314      1315      1308      1311      1314      1316
      1308      1311      1314      1317      1309      1308      1311      1312
      1309      1308      1311      1313      1309      1308      1311      1314
      1310      1308      1311      1312      1310      1308      1311      1313
      1310      1308      1311      1314      1311      1314      1317      1318
      1311      1314      1317      1319      1311      1314      1317      1320
      1312      1311      1314      1315      1312      1311      1314      1316
      1312      1311      1314      1317      1313      1311      1314      1315
      1313      1311      1314      1316      1313      1311      1314      1317
      1314      1317      1320      1321      1314      1317      1320      1322
      1314      1317      1320      1323      1315      1314      1317      1318
      1315      1314      1317      1319      1315      1314      1317      1320
      1316      1314      1317      1318      1316      1314      1317      1319
      1316      1314      1317      1320      1317      1320      1323      1324
      1317      1320      1323      1325      1317      1320      1323      1326
      1318      1317      1320      1321      1318      1317      1320      1322
      1318      1317      1320      1323      1319      1317      1320      1321
      1319      1317      1320      1322      1319      1317      1320      1323
      1320      1323      1326      1327      1320      1323      1326      1328
      1320      1323      1326      1329      1321      1320      1323      1324
      1321      1320      1323      1325      1321      1320      1323      1326
      1322      1320      1323      1324      1322      1320      1323      1325
      1322      1320      1323      1326      1323      1326      1329      1330
      1323      1326      1329      1331      1323      1326      1329      1332
      1324      1323      1326      1327      1324      1323      1326      1328
      1324      1323      1326      1329      1325      1323      1326      1327
      1325      1323      1326      1328      1325      1323      1326      1329
      1326      1329      1332      1333      1326      1329      1332      1334
      1326      1329      1332      1335      1327      1326      1329      1330
      1327      1326      1329      1331      1327      1326      1329      1332
      1328      1326      1329      1330      1328      1326      1329      1331
      1328      1326      1329      1332      1329      1332      1335      1336
      1329      1332      1335      1337      1329      1332      1335      1338
      1330      1329      1332      1333      1330      1329      1332      1334
      1330      1329      1332      1335      1331      1329      1332      1333
      1331      1329      1332      1334      1331      1329      1332      1335
      1332      1335      1338      1339      1332      1335      1338      1340
      1332      1335      1338      1341      1333      1332      1335      1336
      1333      1332      1335      1337      1333      1332      1335      1338
      1334      1332      1335      1336      1334      1332      1335      1337
      1334      1332      1335      1338      1336      1335      1338      1339
      1336      1335      1338      1340      1336      1335      1338      1341
      1337      1335      1338      1339      1337      1335      1338      1340
      1337      1335      1338      1341      1342      1346      1349      1350
      1342      1346      1349      1351      1342      1346      1349      1356
      1343      1342      1346      1347      1343      1342      1346      1348
      1343      1342      1346      1349      1344      1342      1346      1347
      1344      1342      1346      1348      1344      1342      1346      1349
      1345      1342      1346      1347      1345      1342      1346      1348
      1345      1342      1346      1349      1346      1349      1356      1352
      1347      1346      1349      1350      1347      1346      1349      1351
      1347      1346      1349      1356      1348      1346      1349      1350
      1348      1346      1349      1351      1348      1346      1349      1356
      1349      1356      1352      1353      1349      1356      1352      1354
      1349      1356      1352      1355      1350      1349      1356      1352
      1351      1349      1356      1352      1352      1355      1357      1358
      1352      1355      1357      1359      1352      1355      1357      1360
      1353      1352      1355      1357      1354      1352      1355      1357
      1355      1357      1360      1361      1355      1357      1360      1362
      1355      1357      1360      1368      1356      1352      1355      1357
      1357      1360      1362      1363      1357      1360      1368      1369
      1357      1360      1368      1370      1357      1360      1368      1371
      1358      1357      1360      1361      1358      1357      1360      1362
      1358      1357      1360      1368      1359      1357      1360      1361
      1359      1357      1360      1362      1359      1357      1360      1368
      1360      1362      1363      1364      1360      1362      1363      1365
      1360      1368      1371      1372      1361      1360      1362      1363
      1361      1360      1368      1369      1361      1360      1368      1370
      1361      1360      1368      1371      1362      1360      1368      1369
      1362      1360      1368      1370      1362      1360      1368      1371
      1362      1363      1365      1366      1362      1363      1365      1367
      1362      1363      1365      1377      1363      1362      1360      1368
      1363      1365      1377      1378      1363      1365      1377      1379
      1363      1365      1377      1380      1364      1363      1365      1366
      1364      1363      1365      1367      1364      1363      1365      1377
      1365      1377      1380      1381      1365      1377      1380      1382
      1365      1377      1380      1383      1366      1365      1377      1378
      1366      1365      1377      1379      1366      1365      1377      1380
      1367      1365      1377      1378      1367      1365      1377      1379
      1367      1365      1377      1380      1368      1371      1372      1373
      1368      1371      1372      1374      1369      1368      1371      1372
      1370      1368      1371      1372      1371      1372      1374      1375
      1371      1372      1374      1376      1371      1372      1374      1421
      1372      1374      1421      1422      1372      1374      1421      1423
      1372      1374      1421      1424      1373      1372      1374      1375
      1373      1372      1374      1376      1373      1372      1374      1421
      1374      1421      1424      1425      1374      1421      1424      1426
      1374      1421      1424      1427      1375      1374      1421      1422
      1375      1374      1421      1423      1375      1374      1421      1424
      1376      1374      1421      1422      1376      1374      1421      1423
      1376      1374      1421      1424      1377      1380      1383      1384
      1377      1380      1383      1385      1377      1380      1383      1386
      1378      1377      1380      1381      1378      1377      1380      1382
      1378      1377      1380      1383      1379      1377      1380      1381
      1379      1377      1380      1382      1379      1377      1380      1383
      1380      1383      1386      1387      1380      1383      1386      1388
      1380      1383      1386      1389      1381      1380      1383      1384
      1381      1380      1383      1385      1381      1380      1383      1386
      1382      1380      1383      1384      1382      1380      1383      1385
      1382      1380      1383      1386      1383      1386      1389      1390
      1383      1386      1389      1391      1383      1386      1389      1392
      1384      1383      1386      1387      1384      1383      1386      1388
      1384      1383      1386      1389      1385      1383      1386      1387
      1385      1383      1386      1388      1385      1383      1386      1389
      1386      1389      1392      1393      1386      1389      1392      1394
      1386      1389      1392      1395      1387      1386      1389      1390
      1387      1386      1389      1391      1387      1386      1389      1392
      1388      1386      1389      1390      1388      1386      1389      1391
      1388      1386      1389      1392      1389      1392      1395      1396
      1389      1392      1395      1397      1389      1392      1395      1400
      1390      1389      1392      1393      1390      1389      1392      1394
      1390      1389      1392      1395      1391      1389      1392      1393
      1391      1389      1392      1394      1391      1389      1392      1395
      1392      1395      1397      1398      1392      1395      1397      1399
      1392      1395      1397      1400      1392      1395      1400      1397
      1392      1395      1400      1401      1392      1395      1400      1402
      1393      1392      1395      1396      1393      1392      1395      1397
      1393      1392      1395      1400      1394      1392      1395      1396
      1394      1392      1395      1397      1394      1392      1395      1400
      1395      1397      1400      1401      1395      1397      1400      1402
      1395      1400      1397      1398      1395      1400      1397      1399
      1395      1400      1402      1403      1395      1400      1402      1404
      1395      1400      1402      1405      1396      1395      1397      1398
      1396      1395      1397      1399      1396      1395      1397      1400
      1396      1395      1400      1397      1396      1395      1400      1401
      1396      1395      1400      1402      1397      1395      1400      1401
      1397      1395      1400      1402      1397      1400      1402      1403
      1397      1400      1402      1404      1397      1400      1402      1405
      1398      1397      1395      1400      1398      1397      1400      1401
      1398      1397      1400      1402      1399      1397      1395      1400
      1399      1397      1400      1401      1399      1397      1400      1402
      1400      1402      1405      1406      1400      1402      1405      1407
      1400      1402      1405      1408      1401      1400      1402      1403
      1401      1400      1402      1404      1401      1400      1402      1405
      1402      1405      1408      1409      1402      1405      1408      1410
      1402      1405      1408      1411      1403      1402      1405      1406
      1403      1402      1405      1407      1403      1402      1405      1408
      1404      1402      1405      1406      1404      1402      1405      1407
      1404      1402      1405      1408      1405      1408      1411      1412
      1405      1408      1411      1413      1405      1408      1411      1414
      1406      1405      1408      1409      1406      1405      1408      1410
      1406      1405      1408      1411      1407      1405      1408      1409
      1407      1405      1408      1410      1407      1405      1408      1411
      1408      1411      1414      1415      1408      1411      1414      1416
      1408      1411      1414      1417      1409      1408      1411      1412
      1409      1408      1411      1413      1409      1408      1411      1414
      1410      1408      1411      1412      1410      1408      1411      1413
      1410      1408      1411      1414      1411      1414      1417      1418
      1411      1414      1417      1419      1411      1414      1417      1420
      1412      1411      1414      1415      1412      1411      1414      1416
      1412      1411      1414      1417      1413      1411      1414      1415
      1413      1411      1414      1416      1413      1411      1414      1417
      1415      1414      1417      1418      1415      1414      1417      1419
      1415      1414      1417      1420      1416      1414      1417      1418
      1416      1414      1417      1419      1416      1414      1417      1420
      1421      1424      1427      1428      1421      1424      1427      1429
      1421      1424      1427      1430      1422      1421      1424      1425
      1422      1421      1424      1426      1422      1421      1424      1427
      1423      1421      1424      1425      1423      1421      1424      1426
      1423      1421      1424      1427      1424      1427      1430      1431
      1424      1427      1430      1432      1424      1427      1430      1433
      1425      1424      1427      1428      1425      1424      1427      1429
      1425      1424      1427      1430      1426      1424      1427      1428
      1426      1424      1427      1429      1426      1424      1427      1430
      1427      1430      1433      1434      1427      1430      1433      1435
      1427      1430      1433      1436      1428      1427      1430      1431
      1428      1427      1430      1432      1428      1427      1430      1433
      1429      1427      1430      1431      1429      1427      1430      1432
      1429      1427      1430      1433      1430      1433      1436      1437
      1430      1433      1436      1438      1430      1433      1436      1439
      1431      1430      1433      1434      1431      1430      1433      1435
      1431      1430      1433      1436      1432      1430      1433      1434
      1432      1430      1433      1435      1432      1430      1433      1436
      1433      1436      1439      1440      1433      1436      1439      1441
      1433      1436      1439      1442      1434      1433      1436      1437
      1434      1433      1436      1438      1434      1433      1436      1439
      1435      1433      1436      1437      1435      1433      1436      1438
      1435      1433      1436      1439      1436      1439      1442      1443
      1436      1439      1442      1444      1436      1439      1442      1445
      1437      1436      1439      1440      1437      1436      1439      1441
      1437      1436      1439      1442      1438      1436      1439      1440
      1438      1436      1439      1441      1438      1436      1439      1442
      1439      1442      1445      1446      1439      1442      1445      1447
      1439      1442      1445      1448      1440      1439      1442      1443
      1440      1439      1442      1444      1440      1439      1442      1445
      1441      1439      1442      1443      1441      1439      1442      1444
      1441      1439      1442      1445      1442      1445      1448      1449
      1442      1445      1448      1450      1442      1445      1448      1451
      1443      1442      1445      1446      1443      1442      1445      1447
      1443      1442      1445      1448      1444      1442      1445      1446
      1444      1442      1445      1447      1444      1442      1445      1448
      1445      1448      1451      1452      1445      1448      1451      1453
      1445      1448      1451      1454      1446      1445      1448      1449
      1446      1445      1448      1450      1446      1445      1448      1451
      1447      1445      1448      1449      1447      1445      1448      1450
      1447      1445      1448      1451      1448      1451      1454      1455
      1448      1451      1454      1456      1448      1451      1454      1457
      1449      1448      1451      1452      1449      1448      1451      1453
      1449      1448      1451      1454      1450      1448      1451      1452
      1450      1448      1451      1453      1450      1448      1451      1454
      1451      1454      1457      1458      1451      1454      1457      1459
      1451      1454      1457      1460      1452      1451      1454      1455
      1452      1451      1454      1456      1452      1451      1454      1457
      1453      1451      1454      1455      1453      1451      1454      1456
      1453      1451      1454      1457      1454      1457      1460      1461
      1454      1457      1460      1462      1454      1457      1460      1463
      1455      1454      1457      1458      1455      1454      1457      1459
      1455      1454      1457      1460      1456      1454      1457      1458
      1456      1454      1457      1459      1456      1454      1457      1460
      1458      1457      1460      1461      1458      1457      1460      1462
      1458      1457      1460      1463      1459      1457      1460      1461
      1459      1457      1460      1462      1459      1457      1460      1463
      1464      1468      1471      1472      1464      1468      1471      1473
      1464      1468      1471      1478      1465      1464      1468      1469
      1465      1464      1468      1470      1465      1464      1468      1471
      1466      1464      1468      1469      1466      1464      1468      1470
      1466      1464      1468      1471      1467      1464      1468      1469
      1467      1464      1468      1470      1467      1464      1468      1471
      1468      1471      1478      1474      1469      1468      1471      1472
      1469      1468      1471      1473      1469      1468      1471      1478
      1470      1468      1471      1472      1470      1468      1471      1473
      1470      1468      1471      1478      1471      1478      1474      1475
      1471      1478      1474      1476      1471      1478      1474      1477
      1472      1471      1478      1474      1473      1471      1478      1474
      1474      1477      1479      1480      1474      1477      1479      1481
      1474      1477      1479      1482      1475      1474      1477      1479
      1476      1474      1477      1479      1477      1479      1482      1483
      1477      1479      1482      1484      1477      1479      1482      1490
      1478      1474      1477      1479      1479      1482      1484      1485
      1479      1482      1490      1491      1479      1482      1490      1492
      1479      1482      1490      1493      1480      1479      1482      1483
      1480      1479      1482      1484      1480      1479      1482      1490
      1481      1479      1482      1483      1481      1479      1482      1484
      1481      1479      1482      1490      1482      1484      1485      1486
      1482      1484      1485      1487      1482      1490      1493      1494
      1483      1482      1484      1485      1483      1482      1490      1491
      1483      1482      1490      1492      1483      1482      1490      1493
      1484      1482      1490      1491      1484      1482      1490      1492
      1484      1482      1490      1493      1484      1485      1487      1488
      1484      1485      1487      1489      1484      1485      1487      1499
      1485      1484      1482      1490      1485      1487      1499      1500
      1485      1487      1499      1501      1485      1487      1499      1502
      1486      1485      1487      1488      1486      1485      1487      1489
      1486      1485      1487      1499      1487      1499      1502      1503
      1487      1499      1502      1504      1487      1499      1502      1505
      1488      1487      1499      1500      1488      1487      1499      1501
      1488      1487      1499      1502      1489      1487      1499      1500
      1489      1487      1499      1501      1489      1487      1499      1502
      1490      1493      1494      1495      1490      1493      1494      1496
      1491      1490      1493      1494      1492      1490      1493      1494
      1493      1494      1496      1497      1493      1494      1496      1498
      1493      1494      1496      1546      1494      1496      1546      1547
      1494      1496      1546      1548      1494      1496      1546      1549
      1495      1494      1496      1497      1495      1494      1496      1498
      1495      1494      1496      1546      1496      1546      1549      1550
      1496      1546      1549      1551      1496      1546      1549      1552
      1497      1496      1546      1547      1497      1496      1546      1548
      1497      1496      1546      1549      1498      1496      1546      1547
      1498      1496      1546      1548      1498      1496      1546      1549
      1499      1502      1505      1506      1499      1502      1505      1507
      1499      1502      1505      1508      1500      1499      1502      1503
      1500      1499      1502      1504      1500      1499      1502      1505
      1501      1499      1502      1503      1501      1499      1502      1504
      1501      1499      1502      1505      1502      1505      1508      1509
      1502      1505      1508      1510      1502      1505      1508      1511
      1503      1502      1505      1506      1503      1502      1505      1507
      1503      1502      1505      1508      1504      1502      1505      1506
      1504      1502      1505      1507      1504      1502      1505      1508
      1505      1508      1511      1512      1505      1508      1511      1513
      1505      1508      1511      1514      1506      1505      1508      1509
      1506      1505      1508      1510      1506      1505      1508      1511
      1507      1505      1508      1509      1507      1505      1508      1510
      1507      1505      1508      1511      1508      1511      1514      1515
      1508      1511      1514      1516      1508      1511      1514      1517
      1509      1508      1511      1512      1509      1508      1511      1513
      1509      1508      1511      1514      1510      1508      1511      1512
      1510      1508      1511      1513      1510      1508      1511      1514
      1511      1514      1517      1518      1511      1514      1517      1519
      1512      1511      1514      1515      1512      1511      1514      1516
      1512      1511      1514      1517      1513      1511      1514      1515
      1513      1511      1514      1516      1513      1511      1514      1517
      1514      1517      1519      1520      1514      1517      1519      1521
      1515      1514      1517      1518      1515      1514      1517      1519
      1516      1514      1517      1518      1516      1514      1517      1519
      1517      1519      1521      1522      1517      1519      1521      1523
      1517      1519      1521      1524      1518      1517      1519      1520
      1518      1517      1519      1521      1519      1521      1524      1525
      1519      1521      1524      1526      1519      1521      1524      1527
      1520      1519      1521      1522      1520      1519      1521      1523
      1520      1519      1521      1524      1521      1524      1527      1528
      1521      1524      1527      1529      1521      1524      1527      1530
      1522      1521      1524      1525      1522      1521      1524      1526
      1522      1521      1524      1527      1523      1521      1524      1525
      1523      1521      1524      1526      1523      1521      1524      1527
      1524      1527      1530      1531      1524      1527      1530      1532
      1524      1527      1530      1533      1525      1524      1527      1528
      1525      1524      1527      1529      1525      1524      1527      1530
      1526      1524      1527      1528      1526      1524      1527      1529
      1526      1524      1527      1530      1527      1530      1533      1534
      1527      1530      1533      1535      1527      1530      1533      1536
      1528      1527      1530      1531      1528      1527      1530      1532
      1528      1527      1530      1533      1529      1527      1530      1531
      1529      1527      1530      1532      1529      1527      1530      1533
      1530      1533      1536      1537      1530      1533      1536      1538
      1530      1533      1536      1539      1531      1530      1533      1534
      1531      1530      1533      1535      1531      1530      1533      1536
      1532      1530      1533      1534      1532      1530      1533      1535
      1532      1530      1533      1536      1533      1536      1539      1540
      1533      1536      1539      1541      1533      1536      1539      1542
      1534      1533      1536      1537      1534      1533      1536      1538
      1534      1533      1536      1539      1535      1533      1536      1537
      1535      1533      1536      1538      1535      1533      1536      1539
      1536      1539      1542      1543      1536      1539      1542      1544
      1536      1539      1542      1545      1537      1536      1539      1540
      1537      1536      1539      1541      1537      1536      1539      1542
      1538      1536      1539      1540      1538      1536      1539      1541
      1538      1536      1539      1542      1540      1539      1542      1543
      1540      1539      1542      1544      1540      1539      1542      1545
      1541      1539      1542      1543      1541      1539      1542      1544
      1541      1539      1542      1545      1546      1549      1552      1553
      1546      1549      1552      1554      1546      1549      1552      1555
      1547      1546      1549      1550      1547      1546      1549      1551
      1547      1546      1549      1552      1548      1546      1549      1550
      1548      1546      1549      1551      1548      1546      1549      1552
      1549      1552      1555      1556      1549      1552      1555      1557
      1549      1552      1555      1558      1550      1549      1552      1553
      1550      1549      1552      1554      1550      1549      1552      1555
      1551      1549      1552      1553      1551      1549      1552      1554
      1551      1549      1552      1555      1552      1555      1558      1559
      1552      1555      1558      1560      1552      1555      1558      1561
      1553      1552      1555      1556      1553      1552      1555      1557
      1553      1552      1555      1558      1554      1552      1555      1556
      1554      1552      1555      1557      1554      1552      1555      1558
      1555      1558      1561      1562      1555      1558      1561      1563
      1555      1558      1561      1564      1556      1555      1558      1559
      1556      1555      1558      1560      1556      1555      1558      1561
      1557      1555      1558      1559      1557      1555      1558      1560
      1557      1555      1558      1561      1558      1561      1564      1565
      1558      1561      1564      1566      1558      1561      1564      1567
      1559      1558      1561      1562      1559      1558      1561      1563
      1559      1558      1561      1564      1560      1558      1561      1562
      1560      1558      1561      1563      1560      1558      1561      1564
      1561      1564      1567      1568      1561      1564      1567      1569
      1561      1564      1567      1570      1562      1561      1564      1565
      1562      1561      1564      1566      1562      1561      1564      1567
      1563      1561      1564      1565      1563      1561      1564      1566
      1563      1561      1564      1567      1564      1567      1570      1571
      1564      1567      1570      1572      1564      1567      1570      1573
      1565      1564      1567      1568      1565      1564      1567      1569
      1565      1564      1567      1570      1566      1564      1567      1568
      1566      1564      1567      1569      1566      1564      1567      1570
      1567      1570      1573      1574      1567      1570      1573      1575
      1567      1570      1573      1576      1568      1567      1570      1571
      1568      1567      1570      1572      1568      1567      1570      1573
      1569      1567      1570      1571      1569      1567      1570      1572
      1569      1567      1570      1573      1570      1573      1576      1577
      1570      1573      1576      1578      1570      1573      1576      1579
      1571      1570      1573      1574      1571      1570      1573      1575
      1571      1570      1573      1576      1572      1570      1573      1574
      1572      1570      1573      1575      1572      1570      1573      1576
      1573      1576      1579      1580      1573      1576      1579      1581
      1573      1576      1579      1582      1574      1573      1576      1577
      1574      1573      1576      1578      1574      1573      1576      1579
      1575      1573      1576      1577      1575      1573      1576      1578
      1575      1573      1576      1579      1576      1579      1582      1583
      1576      1579      1582      1584      1576      1579      1582      1585
      1577      1576      1579      1580      1577      1576      1579      1581
      1577      1576      1579      1582      1578      1576      1579      1580
      1578      1576      1579      1581      1578      1576      1579      1582
      1579      1582      1585      1586      1579      1582      1585      1587
      1579      1582      1585      1588      1580      1579      1582      1583
      1580      1579      1582      1584      1580      1579      1582      1585
      1581      1579      1582      1583      1581      1579      1582      1584
      1581      1579      1582      1585      1583      1582      1585      1586
      1583      1582      1585      1587      1583      1582      1585      1588
      1584      1582      1585      1586      1584      1582      1585      1587
      1584      1582      1585      1588      1589      1593      1596      1597
      1589      1593      1596      1598      1589      1593      1596      1603
      1590      1589      1593      1594      1590      1589      1593      1595
      1590      1589      1593      1596      1591      1589      1593      1594
      1591      1589      1593      1595      1591      1589      1593      1596
      1592      1589      1593      1594      1592      1589      1593      1595
      1592      1589      1593      1596      1593      1596      1603      1599
      1594      1593      1596      1597      1594      1593      1596      1598
      1594      1593      1596      1603      1595      1593      1596      1597
      1595      1593      1596      1598      1595      1593      1596      1603
      1596      1603      1599      1600      1596      1603      1599      1601
      1596      1603      1599      1602      1597      1596      1603      1599
      1598      1596      1603      1599      1599      1602      1604      1605
      1599      1602      1604      1606      1599      1602      1604      1607
      1600      1599      1602      1604      1601      1599      1602      1604
      1602      1604      1607      1608      1602      1604      1607      1609
      1602      1604      1607      1615      1603      1599      1602      1604
      1604      1607      1609      1610      1604      1607      1615      1616
      1604      1607      1615      1617      1604      1607      1615      1618
      1605      1604      1607      1608      1605      1604      1607      1609
      1605      1604      1607      1615      1606      1604      1607      1608
      1606      1604      1607      1609      1606      1604      1607      1615
      1607      1609      1610      1611      1607      1609      1610      1612
      1607      1615      1618      1619      1608      1607      1609      1610
      1608      1607      1615      1616      1608      1607      1615      1617
      1608      1607      1615      1618      1609      1607      1615      1616
      1609      1607      1615      1617      1609      1607      1615      1618
      1609      1610      1612      1613      1609      1610      1612      1614
      1609      1610      1612      1624      1610      1609      1607      1615
      1610      1612      1624      1625      1610      1612      1624      1626
      1610      1612      1624      1627      1611      1610      1612      1613
      1611      1610      1612      1614      1611      1610      1612      1624
      1612      1624      1627      1628      1612      1624      1627      1629
      1612      1624      1627      1630      1613      1612      1624      1625
      1613      1612      1624      1626      1613      1612      1624      1627
      1614      1612      1624      1625      1614      1612      1624      1626
      1614      1612      1624      1627      1615      1618      1619      1620
      1615      1618      1619      1621      1616      1615      1618      1619
      1617      1615      1618      1619      1618      1619      1621      1622
      1618      1619      1621      1623      1618      1619      1621      1668
      1619      1621      1668      1669      1619      1621      1668      1670
      1619      1621      1668      1671      1620      1619      1621      1622
      1620      1619      1621      1623      1620      1619      1621      1668
      1621      1668      1671      1672      1621      1668      1671      1673
      1621      1668      1671      1674      1622      1621      1668      1669
      1622      1621      1668      1670      1622      1621      1668      1671
      1623      1621      1668      1669      1623      1621      1668      1670
      1623      1621      1668      1671      1624      1627      1630      1631
      1624      1627      1630      1632      1624      1627      1630      1633
      1625      1624      1627      1628      1625      1624      1627      1629
      1625      1624      1627      1630      1626      1624      1627      1628
      1626      1624      1627      1629      1626      1624      1627      1630
      1627      1630      1633      1634      1627      1630      1633      1635
      1627      1630      1633      1636      1628      1627      1630      1631
      1628      1627      1630      1632      1628      1627      1630      1633
      1629      1627      1630      1631      1629      1627      1630      1632
      1629      1627      1630      1633      1630      1633      1636      1637
      1630      1633      1636      1638      1630      1633      1636      1639
      1631      1630      1633      1634      1631      1630      1633      1635
      1631      1630      1633      1636      1632      1630      1633      1634
      1632      1630      1633      1635      1632      1630      1633      1636
      1633      1636      1639      1640      1633      1636      1639      1641
      1633      1636      1639      1642      1634      1633      1636      1637
      1634      1633      1636      1638      1634      1633      1636      1639
      1635      1633      1636      1637      1635      1633      1636      1638
      1635      1633      1636      1639      1636      1639      1642      1643
      1636      1639      1642      1644      1636      1639      1642      1647
      1637      1636      1639      1640      1637      1636      1639      1641
      1637      1636      1639      1642      1638      1636      1639      1640
      1638      1636      1639      1641      1638      1636      1639      1642
      1639      1642      1644      1645      1639      1642      1644      1646
      1639      1642      1644      1647      1639      1642      1647      1644
      1639      1642      1647      1648      1639      1642      1647      1649
      1640      1639      1642      1643      1640      1639      1642      1644
      1640      1639      1642      1647      1641      1639      1642      1643
      1641      1639      1642      1644      1641      1639      1642      1647
      1642      1644      1647      1648      1642      1644      1647      1649
      1642      1647      1644      1645      1642      1647      1644      1646
      1642      1647      1649      1650      1642      1647      1649      1651
      1642      1647      1649      1652      1643      1642      1644      1645
      1643      1642      1644      1646      1643      1642      1644      1647
      1643      1642      1647      1644      1643      1642      1647      1648
      1643      1642      1647      1649      1644      1642      1647      1648
      1644      1642      1647      1649      1644      1647      1649      1650
      1644      1647      1649      1651      1644      1647      1649      1652
      1645      1644      1642      1647      1645      1644      1647      1648
      1645      1644      1647      1649      1646      1644      1642      1647
      1646      1644      1647      1648      1646      1644      1647      1649
      1647      1649      1652      1653      1647      1649      1652      1654
      1647      1649      1652      1655      1648      1647      1649      1650
      1648      1647      1649      1651      1648      1647      1649      1652
      1649      1652      1655      1656      1649      1652      1655      1657
      1649      1652      1655      1658      1650      1649      1652      1653
      1650      1649      1652      1654      1650      1649      1652      1655
      1651      1649      1652      1653      1651      1649      1652      1654
      1651      1649      1652      1655      1652      1655      1658      1659
      1652      1655      1658      1660      1652      1655      1658      1661
      1653      1652      1655      1656      1653      1652      1655      1657
      1653      1652      1655      1658      1654      1652      1655      1656
      1654      1652      1655      1657      1654      1652      1655      1658
      1655      1658      1661      1662      1655      1658      1661      1663
      1655      1658      1661      1664      1656      1655      1658      1659
      1656      1655      1658      1660      1656      1655      1658      1661
      1657      1655      1658      1659      1657      1655      1658      1660
      1657      1655      1658      1661      1658      1661      1664      1665
      1658      1661      1664      1666      1658      1661      1664      1667
      1659      1658      1661      1662      1659      1658      1661      1663
      1659      1658      1661      1664      1660      1658      1661      1662
      1660      1658      1661      1663      1660      1658      1661      1664
      1662      1661      1664      1665      1662      1661      1664      1666
      1662      1661      1664      1667      1663      1661      1664      1665
      1663      1661      1664      1666      1663      1661      1664      1667
      1668      1671      1674      1675      1668      1671      1674      1676
      1668      1671      1674      1677      1669      1668      1671      1672
      1669      1668      1671      1673      1669      1668      1671      1674
      1670      1668      1671      1672      1670      1668      1671      1673
      1670      1668      1671      1674      1671      1674      1677      1678
      1671      1674      1677      1679      1671      1674      1677      1680
      1672      1671      1674      1675      1672      1671      1674      1676
      1672      1671      1674      1677      1673      1671      1674      1675
      1673      1671      1674      1676      1673      1671      1674      1677
      1674      1677      1680      1681      1674      1677      1680      1682
      1674      1677      1680      1683      1675      1674      1677      1678
      1675      1674      1677      1679      1675      1674      1677      1680
      1676      1674      1677      1678      1676      1674      1677      1679
      1676      1674      1677      1680      1677      1680      1683      1684
      1677      1680      1683      1685      1677      1680      1683      1686
      1678      1677      1680      1681      1678      1677      1680      1682
      1678      1677      1680      1683      1679      1677      1680      1681
      1679      1677      1680      1682      1679      1677      1680      1683
      1680      1683      1686      1687      1680      1683      1686      1688
      1680      1683      1686      1689      1681      1680      1683      1684
      1681      1680      1683      1685      1681      1680      1683      1686
      1682      1680      1683      1684      1682      1680      1683      1685
      1682      1680      1683      1686      1683      1686      1689      1690
      1683      1686      1689      1691      1683      1686      1689      1692
      1684      1683      1686      1687      1684      1683      1686      1688
      1684      1683      1686      1689      1685      1683      1686      1687
      1685      1683      1686      1688      1685      1683      1686      1689
      1686      1689      1692      1693      1686      1689      1692      1694
      1686      1689      1692      1695      1687      1686      1689      1690
      1687      1686      1689      1691      1687      1686      1689      1692
      1688      1686      1689      1690      1688      1686      1689      1691
      1688      1686      1689      1692      1689      1692      1695      1696
      1689      1692      1695      1697      1689      1692      1695      1698
      1690      1689      1692      1693      1690      1689      1692      1694
      1690      1689      1692      1695      1691      1689      1692      1693
      1691      1689      1692      1694      1691      1689      1692      1695
      1692      1695      1698      1699      1692      1695      1698      1700
      1692      1695      1698      1701      1693      1692      1695      1696
      1693      1692      1695      1697      1693      1692      1695      1698
      1694      1692      1695      1696      1694      1692      1695      1697
      1694      1692      1695      1698      1695      1698      1701      1702
      1695      1698      1701      1703      1695      1698      1701      1704
      1696      1695      1698      1699      1696      1695      1698      1700
      1696      1695      1698      1701      1697      1695      1698      1699
      1697      1695      1698      1700      1697      1695      1698      1701
      1698      1701      1704      1705      1698      1701      1704      1706
      1698      1701      1704      1707      1699      1698      1701      1702
      1699      1698      1701      1703      1699      1698      1701      1704
      1700      1698      1701      1702      1700      1698      1701      1703
      1700      1698      1701      1704      1701      1704      1707      1708
      1701      1704      1707      1709      1701      1704      1707      1710
      1702      1701      1704      1705      1702      1701      1704      1706
      1702      1701      1704      1707      1703      1701      1704      1705
      1703      1701      1704      1706      1703      1701      1704      1707
      1705      1704      1707      1708      1705      1704      1707      1709
      1705      1704      1707      1710      1706      1704      1707      1708
      1706      1704      1707      1709      1706      1704      1707      1710
      1711      1715      1718      1719      1711      1715      1718      1720
      1711      1715      1718      1725      1712      1711      1715      1716
      1712      1711      1715      1717      1712      1711      1715      1718
      1713      1711      1715      1716      1713      1711      1715      1717
      1713      1711      1715      1718      1714      1711      1715      1716
      1714      1711      1715      1717      1714      1711      1715      1718
      1715      1718      1725      1721      1716      1715      1718      1719
      1716      1715      1718      1720      1716      1715      1718      1725
      1717      1715      1718      1719      1717      1715      1718      1720
      1717      1715      1718      1725      1718      1725      1721      1722
      1718      1725      1721      1723      1718      1725      1721      1724
      1719      1718      1725      1721      1720      1718      1725      1721
      1721      1724      1726      1727      1721      1724      1726      1728
      1721      1724      1726      1729      1722      1721      1724      1726
      1723      1721      1724      1726      1724      1726      1729      1730
      1724      1726      1729      1731      1724      1726      1729      1737
      1725      1721      1724      1726      1726      1729      1731      1732
      1726      1729      1737      1738      1726      1729      1737      1739
      1726      1729      1737      1740      1727      1726      1729      1730
      1727      1726      1729      1731      1727      1726      1729      1737
      1728      1726      1729      1730      1728      1726      1729      1731
      1728      1726      1729      1737      1729      1731      1732      1733
      1729      1731      1732      1734      1729      1737      1740      1741
      1730      1729      1731      1732      1730      1729      1737      1738
      1730      1729      1737      1739      1730      1729      1737      1740
      1731      1729      1737      1738      1731      1729      1737      1739
      1731      1729      1737      1740      1731      1732      1734      1735
      1731      1732      1734      1736      1731      1732      1734      1746
      1732      1731      1729      1737      1732      1734      1746      1747
      1732      1734      1746      1748      1732      1734      1746      1749
      1733      1732      1734      1735      1733      1732      1734      1736
      1733      1732      1734      1746      1734      1746      1749      1750
      1734      1746      1749      1751      1734      1746      1749      1752
      1735      1734      1746      1747      1735      1734      1746      1748
      1735      1734      1746      1749      1736      1734      1746      1747
      1736      1734      1746      1748      1736      1734      1746      1749
      1737      1740      1741      1742      1737      1740      1741      1743
      1738      1737      1740      1741      1739      1737      1740      1741
      1740      1741      1743      1744      1740      1741      1743      1745
      1740      1741      1743      1787      1741      1743      1787      1788
      1741      1743      1787      1789      1741      1743      1787      1790
      1742      1741      1743      1744      1742      1741      1743      1745
      1742      1741      1743      1787      1743      1787      1790      1791
      1743      1787      1790      1792      1743      1787      1790      1793
      1744      1743      1787      1788      1744      1743      1787      1789
      1744      1743      1787      1790      1745      1743      1787      1788
      1745      1743      1787      1789      1745      1743      1787      1790
      1746      1749      1752      1753      1746      1749      1752      1754
      1746      1749      1752      1755      1747      1746      1749      1750
      1747      1746      1749      1751      1747      1746      1749      1752
      1748      1746      1749      1750      1748      1746      1749      1751
      1748      1746      1749      1752      1749      1752      1755      1756
      1749      1752      1755      1757      1749      1752      1755      1758
      1750      1749      1752      1753      1750      1749      1752      1754
      1750      1749      1752      1755      1751      1749      1752      1753
      1751      1749      1752      1754      1751      1749      1752      1755
      1752      1755      1758      1759      1752      1755      1758      1760
      1752      1755      1758      1761      1753      1752      1755      1756
      1753      1752      1755      1757      1753      1752      1755      1758
      1754      1752      1755      1756      1754      1752      1755      1757
      1754      1752      1755      1758      1755      1758      1761      1762
      1755      1758      1761      1763      1755      1758      1761      1764
      1756      1755      1758      1759      1756      1755      1758      1760
      1756      1755      1758      1761      1757      1755      1758      1759
      1757      1755      1758      1760      1757      1755      1758      1761
      1758      1761      1764      1765      1758      1761      1764      1766
      1759      1758      1761      1762      1759      1758      1761      1763
      1759      1758      1761      1764      1760      1758      1761      1762
      1760      1758      1761      1763      1760      1758      1761      1764
      1761      1764      1766      1767      1761      1764      1766      1768
      1762      1761      1764      1765      1762      1761      1764      1766
      1763      1761      1764      1765      1763      1761      1764      1766
      1764      1766      1768      1769      1764      1766      1768      1770
      1764      1766      1768      1771      1765      1764      1766      1767
      1765      1764      1766      1768      1766      1768      1771      1772
      1766      1768      1771      1773      1766      1768      1771      1774
      1767      1766      1768      1769      1767      1766      1768      1770
      1767      1766      1768      1771      1768      1771      1774      1775
      1768      1771      1774      1776      1768      1771      1774      1777
      1769      1768      1771      1772      1769      1768      1771      1773
      1769      1768      1771      1774      1770      1768      1771      1772
      1770      1768      1771      1773      1770      1768      1771      1774
      1771      1774      1777      1778      1771      1774      1777      1779
      1771      1774      1777      1780      1772      1771      1774      1775
      1772      1771      1774      1776      1772      1771      1774      1777
      1773      1771      1774      1775      1773      1771      1774      1776
      1773      1771      1774      1777      1774      1777      1780      1781
      1774      1777      1780      1782      1774      1777      1780      1783
      1775      1774      1777      1778      1775      1774      1777      1779
      1775      1774      1777      1780      1776      1774      1777      1778
      1776      1774      1777      1779      1776      1774      1777      1780
      1777      1780      1783      1784      1777      1780      1783      1785
      1777      1780      1783      1786      1778      1777      1780      1781
      1778      1777      1780      1782      1778      1777      1780      1783
      1779      1777      1780      1781      1779      1777      1780      1782
      1779      1777      1780      1783      1781      1780      1783      1784
      1781      1780      1783      1785      1781      1780      1783      1786
      1782      1780      1783      1784      1782      1780      1783      1785
      1782      1780      1783      1786      1787      1790      1793      1794
      1787      1790      1793      1795      1787      1790      1793      1796
      1788      1787      1790      1791      1788      1787      1790      1792
      1788      1787      1790      1793      1789      1787      1790      1791
      1789      1787      1790      1792      1789      1787      1790      1793
      1790      1793      1796      1797      1790      1793      1796      1798
      1790      1793      1796      1799      1791      1790      1793      1794
      1791      1790      1793      1795      1791      1790      1793      1796
      1792      1790      1793      1794      1792      1790      1793      1795
      1792      1790      1793      1796      1793      1796      1799      1800
      1793      1796      1799      1801      1793      1796      1799      1802
      1794      1793      1796      1797      1794      1793      1796      1798
      1794      1793      1796      1799      1795      1793      1796      1797
      1795      1793      1796      1798      1795      1793      1796      1799
      1796      1799      1802      1803      1796      1799      1802      1804
      1796      1799      1802      1805      1797      1796      1799      1800
      1797      1796      1799      1801      1797      1796      1799      1802
      1798      1796      1799      1800      1798      1796      1799      1801
      1798      1796      1799      1802      1799      1802      1805      1806
      1799      1802      1805      1807      1800      1799      1802      1803
      1800      1799      1802      1804      1800      1799      1802      1805
      1801      1799      1802      1803      1801      1799      1802      1804
      1801      1799      1802      1805      1802      1805      1807      1808
      1802      1805      1807      1809      1803      1802      1805      1806
      1803      1802      1805      1807      1804      1802      1805      1806
      1804      1802      1805      1807      1805      1807      1809      1810
      1805      1807      1809      1811      1805      1807      1809      1812
      1806      1805      1807      1808      1806      1805      1807      1809
      1807      1809      1812      1813      1807      1809      1812      1814
      1807      1809      1812      1815      1808      1807      1809      1810
      1808      1807      1809      1811      1808      1807      1809      1812
      1809      1812      1815      1816      1809      1812      1815      1817
      1809      1812      1815      1818      1810      1809      1812      1813
      1810      1809      1812      1814      1810      1809      1812      1815
      1811      1809      1812      1813      1811      1809      1812      1814
      1811      1809      1812      1815      1812      1815      1818      1819
      1812      1815      1818      1820      1812      1815      1818      1821
      1813      1812      1815      1816      1813      1812      1815      1817
      1813      1812      1815      1818      1814      1812      1815      1816
      1814      1812      1815      1817      1814      1812      1815      1818
      1815      1818      1821      1822      1815      1818      1821      1823
      1815      1818      1821      1824      1816      1815      1818      1819
      1816      1815      1818      1820      1816      1815      1818      1821
      1817      1815      1818      1819      1817      1815      1818      1820
      1817      1815      1818      1821      1818      1821      1824      1825
      1818      1821      1824      1826      1818      1821      1824      1827
      1819      1818      1821      1822      1819      1818      1821      1823
      1819      1818      1821      1824      1820      1818      1821      1822
      1820      1818      1821      1823      1820      1818      1821      1824
      1821      1824      1827      1828      1821      1824      1827      1829
      1821      1824      1827      1830      1822      1821      1824      1825
      1822      1821      1824      1826      1822      1821      1824      1827
      1823      1821      1824      1825      1823      1821      1824      1826
      1823      1821      1824      1827      1824      1827      1830      1831
      1824      1827      1830      1832      1824      1827      1830      1833
      1825      1824      1827      1828      1825      1824      1827      1829
      1825      1824      1827      1830      1826      1824      1827      1828
      1826      1824      1827      1829      1826      1824      1827      1830
      1828      1827      1830      1831      1828      1827      1830      1832
      1828      1827      1830      1833      1829      1827      1830      1831
      1829      1827      1830      1832      1829      1827      1830      1833
      1834      1839      1841      1842      1834      1839      1843      1844
      1834      1839      1843      1845      1834      1839      1843      1850
      1835      1834      1837      1838      1835      1834      1839      1840
      1835      1834      1839      1841      1835      1834      1839      1843
      1836      1834      1837      1838      1836      1834      1839      1840
      1836      1834      1839      1841      1836      1834      1839      1843
      1837      1834      1839      1840      1837      1834      1839      1841
      1837      1834      1839      1843      1838      1837      1834      1839
      1839      1843      1850      1846      1840      1839      1841      1842
      1840      1839      1843      1844      1840      1839      1843      1845
      1840      1839      1843      1850      1841      1839      1843      1844
      1841      1839      1843      1845      1841      1839      1843      1850
      1842      1841      1839      1843      1843      1850      1846      1847
      1843      1850      1846      1848      1843      1850      1846      1849
      1844      1843      1850      1846      1845      1843      1850      1846
      1846      1849      1851      1852      1846      1849      1851      1853
      1846      1849      1851      1854      1847      1846      1849      1851
      1848      1846      1849      1851      1849      1851      1854      1855
      1849      1851      1854      1856      1849      1851      1854      1862
      1850      1846      1849      1851      1851      1854      1856      1857
      1851      1854      1862      1863      1851      1854      1862      1864
      1851      1854      1862      1865      1852      1851      1854      1855
      1852      1851      1854      1856      1852      1851      1854      1862
      1853      1851      1854      1855      1853      1851      1854      1856
      1853      1851      1854      1862      1854      1856      1857      1858
      1854      1856      1857      1859      1854      1862      1865      1866
      1855      1854      1856      1857      1855      1854      1862      1863
      1855      1854      1862      1864      1855      1854      1862      1865
      1856      1854      1862      1863      1856      1854      1862      1864
      1856      1854      1862      1865      1856      1857      1859      1860
      1856      1857      1859      1861      1856      1857      1859      1871
      1857      1856      1854      1862      1857      1859      1871      1872
      1857      1859      1871      1873      1857      1859      1871      1874
      1858      1857      1859      1860      1858      1857      1859      1861
      1858      1857      1859      1871      1859      1871      1874      1875
      1859      1871      1874      1876      1859      1871      1874      1877
      1860      1859      1871      1872      1860      1859      1871      1873
      1860      1859      1871      1874      1861      1859      1871      1872
      1861      1859      1871      1873      1861      1859      1871      1874
      1862      1865      1866      1867      1862      1865      1866      1868
      1863      1862      1865      1866      1864      1862      1865      1866
      1865      1866      1868      1869      1865      1866      1868      1870
      1865      1866      1868      1912      1866      1868      1912      1913
      1866      1868      1912      1914      1866      1868      1912      1915
      1867      1866      1868      1869      1867      1866      1868      1870
      1867      1866      1868      1912      1868      1912      1915      1916
      1868      1912      1915      1917      1868      1912      1915      1918
      1869      1868      1912      1913      1869      1868      1912      1914
      1869      1868      1912      1915      1870      1868      1912      1913
      1870      1868      1912      1914      1870      1868      1912      1915
      1871      1874      1877      1878      1871      1874      1877      1879
      1871      1874      1877      1880      1872      1871      1874      1875
      1872      1871      1874      1876      1872      1871      1874      1877
      1873      1871      1874      1875      1873      1871      1874      1876
      1873      1871      1874      1877      1874      1877      1880      1881
      1874      1877      1880      1882      1874      1877      1880      1883
      1875      1874      1877      1878      1875      1874      1877      1879
      1875      1874      1877      1880      1876      1874      1877      1878
      1876      1874      1877      1879      1876      1874      1877      1880
      1877      1880      1883      1884      1877      1880      1883      1885
      1877      1880      1883      1886      1878      1877      1880      1881
      1878      1877      1880      1882      1878      1877      1880      1883
      1879      1877      1880      1881      1879      1877      1880      1882
      1879      1877      1880      1883      1880      1883      1886      1887
      1880      1883      1886      1888      1880      1883      1886      1889
      1881      1880      1883      1884      1881      1880      1883      1885
      1881      1880      1883      1886      1882      1880      1883      1884
      1882      1880      1883      1885      1882      1880      1883      1886
      1883      1886      1889      1890      1883      1886      1889      1891
      1884      1883      1886      1887      1884      1883      1886      1888
      1884      1883      1886      1889      1885      1883      1886      1887
      1885      1883      1886      1888      1885      1883      1886      1889
      1886      1889      1891      1892      1886      1889      1891      1893
      1887      1886      1889      1890      1887      1886      1889      1891
      1888      1886      1889      1890      1888      1886      1889      1891
      1889      1891      1893      1894      1889      1891      1893      1895
      1889      1891      1893      1896      1890      1889      1891      1892
      1890      1889      1891      1893      1891      1893      1896      1897
      1891      1893      1896      1898      1891      1893      1896      1899
      1892      1891      1893      1894      1892      1891      1893      1895
      1892      1891      1893      1896      1893      1896      1899      1900
      1893      1896      1899      1901      1893      1896      1899      1902
      1894      1893      1896      1897      1894      1893      1896      1898
      1894      1893      1896      1899      1895      1893      1896      1897
      1895      1893      1896      1898      1895      1893      1896      1899
      1896      1899      1902      1903      1896      1899      1902      1904
      1896      1899      1902      1905      1897      1896      1899      1900
      1897      1896      1899      1901      1897      1896      1899      1902
      1898      1896      1899      1900      1898      1896      1899      1901
      1898      1896      1899      1902      1899      1902      1905      1906
      1899      1902      1905      1907      1899      1902      1905      1908
      1900      1899      1902      1903      1900      1899      1902      1904
      1900      1899      1902      1905      1901      1899      1902      1903
      1901      1899      1902      1904      1901      1899      1902      1905
      1902      1905      1908      1909      1902      1905      1908      1910
      1902      1905      1908      1911      1903      1902      1905      1906
      1903      1902      1905      1907      1903      1902      1905      1908
      1904      1902      1905      1906      1904      1902      1905      1907
      1904      1902      1905      1908      1906      1905      1908      1909
      1906      1905      1908      1910      1906      1905      1908      1911
      1907      1905      1908      1909      1907      1905      1908      1910
      1907      1905      1908      1911      1912      1915      1918      1919
      1912      1915      1918      1920      1912      1915      1918      1921
      1913      1912      1915      1916      1913      1912      1915      1917
      1913      1912      1915      1918      1914      1912      1915      1916
      1914      1912      1915      1917      1914      1912      1915      1918
      1915      1918      1921      1922      1915      1918      1921      1923
      1915      1918      1921      1924      1916      1915      1918      1919
      1916      1915      1918      1920      1916      1915      1918      1921
      1917      1915      1918      1919      1917      1915      1918      1920
      1917      1915      1918      1921      1918      1921      1924      1925
      1918      1921      1924      1926      1918      1921      1924      1927
      1919      1918      1921      1922      1919      1918      1921      1923
      1919      1918      1921      1924      1920      1918      1921      1922
      1920      1918      1921      1923      1920      1918      1921      1924
      1921      1924      1927      1928      1921      1924      1927      1929
      1921      1924      1927      1930      1922      1921      1924      1925
      1922      1921      1924      1926      1922      1921      1924      1927
      1923      1921      1924      1925      1923      1921      1924      1926
      1923      1921      1924      1927      1924      1927      1930      1931
      1924      1927      1930      1932      1924      1927      1930      1933
      1925      1924      1927      1928      1925      1924      1927      1929
      1925      1924      1927      1930      1926      1924      1927      1928
      1926      1924      1927      1929      1926      1924      1927      1930
      1927      1930      1933      1934      1927      1930      1933      1935
      1927      1930      1933      1936      1928      1927      1930      1931
      1928      1927      1930      1932      1928      1927      1930      1933
      1929      1927      1930      1931      1929      1927      1930      1932
      1929      1927      1930      1933      1930      1933      1936      1937
      1930      1933      1936      1938      1930      1933      1936      1939
      1931      1930      1933      1934      1931      1930      1933      1935
      1931      1930      1933      1936      1932      1930      1933      1934
      1932      1930      1933      1935      1932      1930      1933      1936
      1933      1936      1939      1940      1933      1936      1939      1941
      1933      1936      1939      1942      1934      1933      1936      1937
      1934      1933      1936      1938      1934      1933      1936      1939
      1935      1933      1936      1937      1935      1933      1936      1938
      1935      1933      1936      1939      1936      1939      1942      1943
      1936      1939      1942      1944      1936      1939      1942      1945
      1937      1936      1939      1940      1937      1936      1939      1941
      1937      1936      1939      1942      1938      1936      1939      1940
      1938      1936      1939      1941      1938      1936      1939      1942
      1939      1942      1945      1946      1939      1942      1945      1947
      1939      1942      1945      1948      1940      1939      1942      1943
      1940      1939      1942      1944      1940      1939      1942      1945
      1941      1939      1942      1943      1941      1939      1942      1944
      1941      1939      1942      1945      1942      1945      1948      1949
      1942      1945      1948      1950      1942      1945      1948      1951
      1943      1942      1945      1946      1943      1942      1945      1947
      1943      1942      1945      1948      1944      1942      1945      1946
      1944      1942      1945      1947      1944      1942      1945      1948
      1945      1948      1951      1952      1945      1948      1951      1953
      1945      1948      1951      1954      1946      1945      1948      1949
      1946      1945      1948      1950      1946      1945      1948      1951
      1947      1945      1948      1949      1947      1945      1948      1950
      1947      1945      1948      1951      1949      1948      1951      1952
      1949      1948      1951      1953      1949      1948      1951      1954
      1950      1948      1951      1952      1950      1948      1951      1953
      1950      1948      1951      1954      1955      1959      1962      1963
      1955      1959      1962      1964      1955      1959      1962      1969
      1956      1955      1959      1960      1956      1955      1959      1961
      1956      1955      1959      1962      1957      1955      1959      1960
      1957      1955      1959      1961      1957      1955      1959      1962
      1958      1955      1959      1960      1958      1955      1959      1961
      1958      1955      1959      1962      1959      1962      1969      1965
      1960      1959      1962      1963      1960      1959      1962      1964
      1960      1959      1962      1969      1961      1959      1962      1963
      1961      1959      1962      1964      1961      1959      1962      1969
      1962      1969      1965      1966      1962      1969      1965      1967
      1962      1969      1965      1968      1963      1962      1969      1965
      1964      1962      1969      1965      1965      1968      1970      1971
      1965      1968      1970      1972      1965      1968      1970      1973
      1966      1965      1968      1970      1967      1965      1968      1970
      1968      1970      1973      1974      1968      1970      1973      1975
      1968      1970      1973      1981      1969      1965      1968      1970
      1970      1973      1975      1976      1970      1973      1981      1982
      1970      1973      1981      1983      1970      1973      1981      1984
      1971      1970      1973      1974      1971      1970      1973      1975
      1971      1970      1973      1981      1972      1970      1973      1974
      1972      1970      1973      1975      1972      1970      1973      1981
      1973      1975      1976      1977      1973      1975      1976      1978
      1973      1981      1984      1985      1974      1973      1975      1976
      1974      1973      1981      1982      1974      1973      1981      1983
      1974      1973      1981      1984      1975      1973      1981      1982
      1975      1973      1981      1983      1975      1973      1981      1984
      1975      1976      1978      1979      1975      1976      1978      1980
      1975      1976      1978      1990      1976      1975      1973      1981
      1976      1978      1990      1991      1976      1978      1990      1992
      1976      1978      1990      1993      1977      1976      1978      1979
      1977      1976      1978      1980      1977      1976      1978      1990
      1978      1990      1993      1994      1978      1990      1993      1995
      1978      1990      1993      1996      1979      1978      1990      1991
      1979      1978      1990      1992      1979      1978      1990      1993
      1980      1978      1990      1991      1980      1978      1990      1992
      1980      1978      1990      1993      1981      1984      1985      1986
      1981      1984      1985      1987      1982      1981      1984      1985
      1983      1981      1984      1985      1984      1985      1987      1988
      1984      1985      1987      1989      1984      1985      1987      2034
      1985      1987      2034      2035      1985      1987      2034      2036
      1985      1987      2034      2037      1986      1985      1987      1988
      1986      1985      1987      1989      1986      1985      1987      2034
      1987      2034      2037      2038      1987      2034      2037      2039
      1987      2034      2037      2040      1988      1987      2034      2035
      1988      1987      2034      2036      1988      1987      2034      2037
      1989      1987      2034      2035      1989      1987      2034      2036
      1989      1987      2034      2037      1990      1993      1996      1997
      1990      1993      1996      1998      1990      1993      1996      1999
      1991      1990      1993      1994      1991      1990      1993      1995
      1991      1990      1993      1996      1992      1990      1993      1994
      1992      1990      1993      1995      1992      1990      1993      1996
      1993      1996      1999      2000      1993      1996      1999      2001
      1993      1996      1999      2002      1994      1993      1996      1997
      1994      1993      1996      1998      1994      1993      1996      1999
      1995      1993      1996      1997      1995      1993      1996      1998
      1995      1993      1996      1999      1996      1999      2002      2003
      1996      1999      2002      2004      1996      1999      2002      2005
      1997      1996      1999      2000      1997      1996      1999      2001
      1997      1996      1999      2002      1998      1996      1999      2000
      1998      1996      1999      2001      1998      1996      1999      2002
      1999      2002      2005      2006      1999      2002      2005      2007
      1999      2002      2005      2008      2000      1999      2002      2003
      2000      1999      2002      2004      2000      1999      2002      2005
      2001      1999      2002      2003      2001      1999      2002      2004
      2001      1999      2002      2005      2002      2005      2008      2009
      2002      2005      2008      2010      2002      2005      2008      2013
      2003      2002      2005      2006      2003      2002      2005      2007
      2003      2002      2005      2008      2004      2002      2005      2006
      2004      2002      2005      2007      2004      2002      2005      2008
      2005      2008      2010      2011      2005      2008      2010      2012
      2005      2008      2010      2013      2005      2008      2013      2010
      2005      2008      2013      2014      2005      2008      2013      2015
      2006      2005      2008      2009      2006      2005      2008      2010
      2006      2005      2008      2013      2007      2005      2008      2009
      2007      2005      2008      2010      2007      2005      2008      2013
      2008      2010      2013      2014      2008      2010      2013      2015
      2008      2013      2010      2011      2008      2013      2010      2012
      2008      2013      2015      2016      2008      2013      2015      2017
      2008      2013      2015      2018      2009      2008      2010      2011
      2009      2008      2010      2012      2009      2008      2010      2013
      2009      2008      2013      2010      2009      2008      2013      2014
      2009      2008      2013      2015      2010      2008      2013      2014
      2010      2008      2013      2015      2010      2013      2015      2016
      2010      2013      2015      2017      2010      2013      2015      2018
      2011      2010      2008      2013      2011      2010      2013      2014
      2011      2010      2013      2015      2012      2010      2008      2013
      2012      2010      2013      2014      2012      2010      2013      2015
      2013      2015      2018      2019      2013      2015      2018      2020
      2013      2015      2018      2021      2014      2013      2015      2016
      2014      2013      2015      2017      2014      2013      2015      2018
      2015      2018      2021      2022      2015      2018      2021      2023
      2015      2018      2021      2024      2016      2015      2018      2019
      2016      2015      2018      2020      2016      2015      2018      2021
      2017      2015      2018      2019      2017      2015      2018      2020
      2017      2015      2018      2021      2018      2021      2024      2025
      2018      2021      2024      2026      2018      2021      2024      2027
      2019      2018      2021      2022      2019      2018      2021      2023
      2019      2018      2021      2024      2020      2018      2021      2022
      2020      2018      2021      2023      2020      2018      2021      2024
      2021      2024      2027      2028      2021      2024      2027      2029
      2021      2024      2027      2030      2022      2021      2024      2025
      2022      2021      2024      2026      2022      2021      2024      2027
      2023      2021      2024      2025      2023      2021      2024      2026
      2023      2021      2024      2027      2024      2027      2030      2031
      2024      2027      2030      2032      2024      2027      2030      2033
      2025      2024      2027      2028      2025      2024      2027      2029
      2025      2024      2027      2030      2026      2024      2027      2028
      2026      2024      2027      2029      2026      2024      2027      2030
      2028      2027      2030      2031      2028      2027      2030      2032
      2028      2027      2030      2033      2029      2027      2030      2031
      2029      2027      2030      2032      2029      2027      2030      2033
      2034      2037      2040      2041      2034      2037      2040      2042
      2034      2037      2040      2043      2035      2034      2037      2038
      2035      2034      2037      2039      2035      2034      2037      2040
      2036      2034      2037      2038      2036      2034      2037      2039
      2036      2034      2037      2040      2037      2040      2043      2044
      2037      2040      2043      2045      2037      2040      2043      2046
      2038      2037      2040      2041      2038      2037      2040      2042
      2038      2037      2040      2043      2039      2037      2040      2041
      2039      2037      2040      2042      2039      2037      2040      2043
      2040      2043      2046      2047      2040      2043      2046      2048
      2040      2043      2046      2049      2041      2040      2043      2044
      2041      2040      2043      2045      2041      2040      2043      2046
      2042      2040      2043      2044      2042      2040      2043      2045
      2042      2040      2043      2046      2043      2046      2049      2050
      2043      2046      2049      2051      2043      2046      2049      2052
      2044      2043      2046      2047      2044      2043      2046      2048
      2044      2043      2046      2049      2045      2043      2046      2047
      2045      2043      2046      2048      2045      2043      2046      2049
      2046      2049      2052      2053      2046      2049      2052      2054
      2046      2049      2052      2055      2047      2046      2049      2050
      2047      2046      2049      2051      2047      2046      2049      2052
      2048      2046      2049      2050      2048      2046      2049      2051
      2048      2046      2049      2052      2049      2052      2055      2056
      2049      2052      2055      2057      2049      2052      2055      2058
      2050      2049      2052      2053      2050      2049      2052      2054
      2050      2049      2052      2055      2051      2049      2052      2053
      2051      2049      2052      2054      2051      2049      2052      2055
      2052      2055      2058      2059      2052      2055      2058      2060
      2052      2055      2058      2061      2053      2052      2055      2056
      2053      2052      2055      2057      2053      2052      2055      2058
      2054      2052      2055      2056      2054      2052      2055      2057
      2054      2052      2055      2058      2055      2058      2061      2062
      2055      2058      2061      2063      2055      2058      2061      2064
      2056      2055      2058      2059      2056      2055      2058      2060
      2056      2055      2058      2061      2057      2055      2058      2059
      2057      2055      2058      2060      2057      2055      2058      2061
      2058      2061      2064      2065      2058      2061      2064      2066
      2058      2061      2064      2067      2059      2058      2061      2062
      2059      2058      2061      2063      2059      2058      2061      2064
      2060      2058      2061      2062      2060      2058      2061      2063
      2060      2058      2061      2064      2061      2064      2067      2068
      2061      2064      2067      2069      2061      2064      2067      2070
      2062      2061      2064      2065      2062      2061      2064      2066
      2062      2061      2064      2067      2063      2061      2064      2065
      2063      2061      2064      2066      2063      2061      2064      2067
      2064      2067      2070      2071      2064      2067      2070      2072
      2064      2067      2070      2073      2065      2064      2067      2068
      2065      2064      2067      2069      2065      2064      2067      2070
      2066      2064      2067      2068      2066      2064      2067      2069
      2066      2064      2067      2070      2067      2070      2073      2074
      2067      2070      2073      2075      2067      2070      2073      2076
      2068      2067      2070      2071      2068      2067      2070      2072
      2068      2067      2070      2073      2069      2067      2070      2071
      2069      2067      2070      2072      2069      2067      2070      2073
      2071      2070      2073      2074      2071      2070      2073      2075
      2071      2070      2073      2076      2072      2070      2073      2074
      2072      2070      2073      2075      2072      2070      2073      2076
      2077      2081      2084      2085      2077      2081      2084      2086
      2077      2081      2084      2091      2078      2077      2081      2082
      2078      2077      2081      2083      2078      2077      2081      2084
      2079      2077      2081      2082      2079      2077      2081      2083
      2079      2077      2081      2084      2080      2077      2081      2082
      2080      2077      2081      2083      2080      2077      2081      2084
      2081      2084      2091      2087      2082      2081      2084      2085
      2082      2081      2084      2086      2082      2081      2084      2091
      2083      2081      2084      2085      2083      2081      2084      2086
      2083      2081      2084      2091      2084      2091      2087      2088
      2084      2091      2087      2089      2084      2091      2087      2090
      2085      2084      2091      2087      2086      2084      2091      2087
      2087      2090      2092      2093      2087      2090      2092      2094
      2087      2090      2092      2095      2088      2087      2090      2092
      2089      2087      2090      2092      2090      2092      2095      2096
      2090      2092      2095      2097      2090      2092      2095      2103
      2091      2087      2090      2092      2092      2095      2097      2098
      2092      2095      2103      2104      2092      2095      2103      2105
      2092      2095      2103      2106      2093      2092      2095      2096
      2093      2092      2095      2097      2093      2092      2095      2103
      2094      2092      2095      2096      2094      2092      2095      2097
      2094      2092      2095      2103      2095      2097      2098      2099
      2095      2097      2098      2100      2095      2103      2106      2107
      2096      2095      2097      2098      2096      2095      2103      2104
      2096      2095      2103      2105      2096      2095      2103      2106
      2097      2095      2103      2104      2097      2095      2103      2105
      2097      2095      2103      2106      2097      2098      2100      2101
      2097      2098      2100      2102      2097      2098      2100      2112
      2098      2097      2095      2103      2098      2100      2112      2113
      2098      2100      2112      2114      2098      2100      2112      2115
      2099      2098      2100      2101      2099      2098      2100      2102
      2099      2098      2100      2112      2100      2112      2115      2116
      2100      2112      2115      2117      2100      2112      2115      2118
      2101      2100      2112      2113      2101      2100      2112      2114
      2101      2100      2112      2115      2102      2100      2112      2113
      2102      2100      2112      2114      2102      2100      2112      2115
      2103      2106      2107      2108      2103      2106      2107      2109
      2104      2103      2106      2107      2105      2103      2106      2107
      2106      2107      2109      2110      2106      2107      2109      2111
      2106      2107      2109      2156      2107      2109      2156      2157
      2107      2109      2156      2158      2107      2109      2156      2159
      2108      2107      2109      2110      2108      2107      2109      2111
      2108      2107      2109      2156      2109      2156      2159      2160
      2109      2156      2159      2161      2109      2156      2159      2162
      2110      2109      2156      2157      2110      2109      2156      2158
      2110      2109      2156      2159      2111      2109      2156      2157
      2111      2109      2156      2158      2111      2109      2156      2159
      2112      2115      2118      2119      2112      2115      2118      2120
      2112      2115      2118      2121      2113      2112      2115      2116
      2113      2112      2115      2117      2113      2112      2115      2118
      2114      2112      2115      2116      2114      2112      2115      2117
      2114      2112      2115      2118      2115      2118      2121      2122
      2115      2118      2121      2123      2115      2118      2121      2124
      2116      2115      2118      2119      2116      2115      2118      2120
      2116      2115      2118      2121      2117      2115      2118      2119
      2117      2115      2118      2120      2117      2115      2118      2121
      2118      2121      2124      2125      2118      2121      2124      2126
      2118      2121      2124      2127      2119      2118      2121      2122
      2119      2118      2121      2123      2119      2118      2121      2124
      2120      2118      2121      2122      2120      2118      2121      2123
      2120      2118      2121      2124      2121      2124      2127      2128
      2121      2124      2127      2129      2121      2124      2127      2130
      2122      2121      2124      2125      2122      2121      2124      2126
      2122      2121      2124      2127      2123      2121      2124      2125
      2123      2121      2124      2126      2123      2121      2124      2127
      2124      2127      2130      2131      2124      2127      2130      2132
      2124      2127      2130      2135      2125      2124      2127      2128
      2125      2124      2127      2129      2125      2124      2127      2130
      2126      2124      2127      2128      2126      2124      2127      2129
      2126      2124      2127      2130      2127      2130      2132      2133
      2127      2130      2132      2134      2127      2130      2132      2135
      2127      2130      2135      2132      2127      2130      2135      2136
      2127      2130      2135      2137      2128      2127      2130      2131
      2128      2127      2130      2132      2128      2127      2130      2135
      2129      2127      2130      2131      2129      2127      2130      2132
      2129      2127      2130      2135      2130      2132      2135      2136
      2130      2132      2135      2137      2130      2135      2132      2133
      2130      2135      2132      2134      2130      2135      2137      2138
      2130      2135      2137      2139      2130      2135      2137      2140
      2131      2130      2132      2133      2131      2130      2132      2134
      2131      2130      2132      2135      2131      2130      2135      2132
      2131      2130      2135      2136      2131      2130      2135      2137
      2132      2130      2135      2136      2132      2130      2135      2137
      2132      2135      2137      2138      2132      2135      2137      2139
      2132      2135      2137      2140      2133      2132      2130      2135
      2133      2132      2135      2136      2133      2132      2135      2137
      2134      2132      2130      2135      2134      2132      2135      2136
      2134      2132      2135      2137      2135      2137      2140      2141
      2135      2137      2140      2142      2135      2137      2140      2143
      2136      2135      2137      2138      2136      2135      2137      2139
      2136      2135      2137      2140      2137      2140      2143      2144
      2137      2140      2143      2145      2137      2140      2143      2146
      2138      2137      2140      2141      2138      2137      2140      2142
      2138      2137      2140      2143      2139      2137      2140      2141
      2139      2137      2140      2142      2139      2137      2140      2143
      2140      2143      2146      2147      2140      2143      2146      2148
      2140      2143      2146      2149      2141      2140      2143      2144
      2141      2140      2143      2145      2141      2140      2143      2146
      2142      2140      2143      2144      2142      2140      2143      2145
      2142      2140      2143      2146      2143      2146      2149      2150
      2143      2146      2149      2151      2143      2146      2149      2152
      2144      2143      2146      2147      2144      2143      2146      2148
      2144      2143      2146      2149      2145      2143      2146      2147
      2145      2143      2146      2148      2145      2143      2146      2149
      2146      2149      2152      2153      2146      2149      2152      2154
      2146      2149      2152      2155      2147      2146      2149      2150
      2147      2146      2149      2151      2147      2146      2149      2152
      2148      2146      2149      2150      2148      2146      2149      2151
      2148      2146      2149      2152      2150      2149      2152      2153
      2150      2149      2152      2154      2150      2149      2152      2155
      2151      2149      2152      2153      2151      2149      2152      2154
      2151      2149      2152      2155      2156      2159      2162      2163
      2156      2159      2162      2164      2156      2159      2162      2165
      2157      2156      2159      2160      2157      2156      2159      2161
      2157      2156      2159      2162      2158      2156      2159      2160
      2158      2156      2159      2161      2158      2156      2159      2162
      2159      2162      2165      2166      2159      2162      2165      2167
      2159      2162      2165      2168      2160      2159      2162      2163
      2160      2159      2162      2164      2160      2159      2162      2165
      2161      2159      2162      2163      2161      2159      2162      2164
      2161      2159      2162      2165      2162      2165      2168      2169
      2162      2165      2168      2170      2162      2165      2168      2171
      2163      2162      2165      2166      2163      2162      2165      2167
      2163      2162      2165      2168      2164      2162      2165      2166
      2164      2162      2165      2167      2164      2162      2165      2168
      2165      2168      2171      2172      2165      2168      2171      2173
      2165      2168      2171      2174      2166      2165      2168      2169
      2166      2165      2168      2170      2166      2165      2168      2171
      2167      2165      2168      2169      2167      2165      2168      2170
      2167      2165      2168      2171      2168      2171      2174      2175
      2168      2171      2174      2176      2168      2171      2174      2177
      2169      2168      2171      2172      2169      2168      2171      2173
      2169      2168      2171      2174      2170      2168      2171      2172
      2170      2168      2171      2173      2170      2168      2171      2174
      2171      2174      2177      2178      2171      2174      2177      2179
      2171      2174      2177      2180      2172      2171      2174      2175
      2172      2171      2174      2176      2172      2171      2174      2177
      2173      2171      2174      2175      2173      2171      2174      2176
      2173      2171      2174      2177      2174      2177      2180      2181
      2174      2177      2180      2182      2174      2177      2180      2183
      2175      2174      2177      2178      2175      2174      2177      2179
      2175      2174      2177      2180      2176      2174      2177      2178
      2176      2174      2177      2179      2176      2174      2177      2180
      2177      2180      2183      2184      2177      2180      2183      2185
      2177      2180      2183      2186      2178      2177      2180      2181
      2178      2177      2180      2182      2178      2177      2180      2183
      2179      2177      2180      2181      2179      2177      2180      2182
      2179      2177      2180      2183      2180      2183      2186      2187
      2180      2183      2186      2188      2180      2183      2186      2189
      2181      2180      2183      2184      2181      2180      2183      2185
      2181      2180      2183      2186      2182      2180      2183      2184
      2182      2180      2183      2185      2182      2180      2183      2186
      2183      2186      2189      2190      2183      2186      2189      2191
      2183      2186      2189      2192      2184      2183      2186      2187
      2184      2183      2186      2188      2184      2183      2186      2189
      2185      2183      2186      2187      2185      2183      2186      2188
      2185      2183      2186      2189      2186      2189      2192      2193
      2186      2189      2192      2194      2186      2189      2192      2195
      2187      2186      2189      2190      2187      2186      2189      2191
      2187      2186      2189      2192      2188      2186      2189      2190
      2188      2186      2189      2191      2188      2186      2189      2192
      2190      2189      2192      2193      2190      2189      2192      2194
      2190      2189      2192      2195      2191      2189      2192      2193
      2191      2189      2192      2194      2191      2189      2192      2195
      2196      2200      2203      2204      2196      2200      2203      2205
      2196      2200      2203      2210      2197      2196      2200      2201
      2197      2196      2200      2202      2197      2196      2200      2203
      2198      2196      2200      2201      2198      2196      2200      2202
      2198      2196      2200      2203      2199      2196      2200      2201
      2199      2196      2200      2202      2199      2196      2200      2203
      2200      2203      2210      2206      2201      2200      2203      2204
      2201      2200      2203      2205      2201      2200      2203      2210
      2202      2200      2203      2204      2202      2200      2203      2205
      2202      2200      2203      2210      2203      2210      2206      2207
      2203      2210      2206      2208      2203      2210      2206      2209
      2204      2203      2210      2206      2205      2203      2210      2206
      2206      2209      2211      2212      2206      2209      2211      2213
      2206      2209      2211      2214      2207      2206      2209      2211
      2208      2206      2209      2211      2209      2211      2214      2215
      2209      2211      2214      2216      2209      2211      2214      2222
      2210      2206      2209      2211      2211      2214      2216      2217
      2211      2214      2222      2223      2211      2214      2222      2224
      2211      2214      2222      2225      2212      2211      2214      2215
      2212      2211      2214      2216      2212      2211      2214      2222
      2213      2211      2214      2215      2213      2211      2214      2216
      2213      2211      2214      2222      2214      2216      2217      2218
      2214      2216      2217      2219      2214      2222      2225      2226
      2215      2214      2216      2217      2215      2214      2222      2223
      2215      2214      2222      2224      2215      2214      2222      2225
      2216      2214      2222      2223      2216      2214      2222      2224
      2216      2214      2222      2225      2216      2217      2219      2220
      2216      2217      2219      2221      2216      2217      2219      2231
      2217      2216      2214      2222      2217      2219      2231      2232
      2217      2219      2231      2233      2217      2219      2231      2234
      2218      2217      2219      2220      2218      2217      2219      2221
      2218      2217      2219      2231      2219      2231      2234      2235
      2219      2231      2234      2236      2219      2231      2234      2237
      2220      2219      2231      2232      2220      2219      2231      2233
      2220      2219      2231      2234      2221      2219      2231      2232
      2221      2219      2231      2233      2221      2219      2231      2234
      2222      2225      2226      2227      2222      2225      2226      2228
      2223      2222      2225      2226      2224      2222      2225      2226
      2225      2226      2228      2229      2225      2226      2228      2230
      2225      2226      2228      2272      2226      2228      2272      2273
      2226      2228      2272      2274      2226      2228      2272      2275
      2227      2226      2228      2229      2227      2226      2228      2230
      2227      2226      2228      2272      2228      2272      2275      2276
      2228      2272      2275      2277      2228      2272      2275      2278
      2229      2228      2272      2273      2229      2228      2272      2274
      2229      2228      2272      2275      2230      2228      2272      2273
      2230      2228      2272      2274      2230      2228      2272      2275
      2231      2234      2237      2238      2231      2234      2237      2239
      2231      2234      2237      2240      2232      2231      2234      2235
      2232      2231      2234      2236      2232      2231      2234      2237
      2233      2231      2234      2235      2233      2231      2234      2236
      2233      2231      2234      2237      2234      2237      2240      2241
      2234      2237      2240      2242      2234      2237      2240      2243
      2235      2234      2237      2238      2235      2234      2237      2239
      2235      2234      2237      2240      2236      2234      2237      2238
      2236      2234      2237      2239      2236      2234      2237      2240
      2237      2240      2243      2244      2237      2240      2243      2245
      2237      2240      2243      2246      2238      2237      2240      2241
      2238      2237      2240      2242      2238      2237      2240      2243
      2239      2237      2240      2241      2239      2237      2240      2242
      2239      2237      2240      2243      2240      2243      2246      2247
      2240      2243      2246      2248      2240      2243      2246      2249
      2241      2240      2243      2244      2241      2240      2243      2245
      2241      2240      2243      2246      2242      2240      2243      2244
      2242      2240      2243      2245      2242      2240      2243      2246
      2243      2246      2249      2250      2243      2246      2249      2251
      2244      2243      2246      2247      2244      2243      2246      2248
      2244      2243      2246      2249      2245      2243      2246      2247
      2245      2243      2246      2248      2245      2243      2246      2249
      2246      2249      2251      2252      2246      2249      2251      2253
      2247      2246      2249      2250      2247      2246      2249      2251
      2248      2246      2249      2250      2248      2246      2249      2251
      2249      2251      2253      2254      2249      2251      2253      2255
      2249      2251      2253      2256      2250      2249      2251      2252
      2250      2249      2251      2253      2251      2253      2256      2257
      2251      2253      2256      2258      2251      2253      2256      2259
      2252      2251      2253      2254      2252      2251      2253      2255
      2252      2251      2253      2256      2253      2256      2259      2260
      2253      2256      2259      2261      2253      2256      2259      2262
      2254      2253      2256      2257      2254      2253      2256      2258
      2254      2253      2256      2259      2255      2253      2256      2257
      2255      2253      2256      2258      2255      2253      2256      2259
      2256      2259      2262      2263      2256      2259      2262      2264
      2256      2259      2262      2265      2257      2256      2259      2260
      2257      2256      2259      2261      2257      2256      2259      2262
      2258      2256      2259      2260      2258      2256      2259      2261
      2258      2256      2259      2262      2259      2262      2265      2266
      2259      2262      2265      2267      2259      2262      2265      2268
      2260      2259      2262      2263      2260      2259      2262      2264
      2260      2259      2262      2265      2261      2259      2262      2263
      2261      2259      2262      2264      2261      2259      2262      2265
      2262      2265      2268      2269      2262      2265      2268      2270
      2262      2265      2268      2271      2263      2262      2265      2266
      2263      2262      2265      2267      2263      2262      2265      2268
      2264      2262      2265      2266      2264      2262      2265      2267
      2264      2262      2265      2268      2266      2265      2268      2269
      2266      2265      2268      2270      2266      2265      2268      2271
      2267      2265      2268      2269      2267      2265      2268      2270
      2267      2265      2268      2271      2272      2275      2278      2279
      2272      2275      2278      2280      2272      2275      2278      2281
      2273      2272      2275      2276      2273      2272      2275      2277
      2273      2272      2275      2278      2274      2272      2275      2276
      2274      2272      2275      2277      2274      2272      2275      2278
      2275      2278      2281      2282      2275      2278      2281      2283
      2275      2278      2281      2284      2276      2275      2278      2279
      2276      2275      2278      2280      2276      2275      2278      2281
      2277      2275      2278      2279      2277      2275      2278      2280
      2277      2275      2278      2281      2278      2281      2284      2285
      2278      2281      2284      2286      2278      2281      2284      2287
      2279      2278      2281      2282      2279      2278      2281      2283
      2279      2278      2281      2284      2280      2278      2281      2282
      2280      2278      2281      2283      2280      2278      2281      2284
      2281      2284      2287      2288      2281      2284      2287      2289
      2281      2284      2287      2290      2282      2281      2284      2285
      2282      2281      2284      2286      2282      2281      2284      2287
      2283      2281      2284      2285      2283      2281      2284      2286
      2283      2281      2284      2287      2284      2287      2290      2291
      2284      2287      2290      2292      2285      2284      2287      2288
      2285      2284      2287      2289      2285      2284      2287      2290
      2286      2284      2287      2288      2286      2284      2287      2289
      2286      2284      2287      2290      2287      2290      2292      2293
      2287      2290      2292      2294      2288      2287      2290      2291
      2288      2287      2290      2292      2289      2287      2290      2291
      2289      2287      2290      2292      2290      2292      2294      2295
      2290      2292      2294      2296      2290      2292      2294      2297
      2291      2290      2292      2293      2291      2290      2292      2294
      2292      2294      2297      2298      2292      2294      2297      2299
      2292      2294      2297      2300      2293      2292      2294      2295
      2293      2292      2294      2296      2293      2292      2294      2297
      2294      2297      2300      2301      2294      2297      2300      2302
      2294      2297      2300      2303      2295      2294      2297      2298
      2295      2294      2297      2299      2295      2294      2297      2300
      2296      2294      2297      2298      2296      2294      2297      2299
      2296      2294      2297      2300      2297      2300      2303      2304
      2297      2300      2303      2305      2297      2300      2303      2306
      2298      2297      2300      2301      2298      2297      2300      2302
      2298      2297      2300      2303      2299      2297      2300      2301
      2299      2297      2300      2302      2299      2297      2300      2303
      2300      2303      2306      2307      2300      2303      2306      2308
      2300      2303      2306      2309      2301      2300      2303      2304
      2301      2300      2303      2305      2301      2300      2303      2306
      2302      2300      2303      2304      2302      2300      2303      2305
      2302      2300      2303      2306      2303      2306      2309      2310
      2303      2306      2309      2311      2303      2306      2309      2312
      2304      2303      2306      2307      2304      2303      2306      2308
      2304      2303      2306      2309      2305      2303      2306      2307
      2305      2303      2306      2308      2305      2303      2306      2309
      2306      2309      2312      2313      2306      2309      2312      2314
      2306      2309      2312      2315      2307      2306      2309      2310
      2307      2306      2309      2311      2307      2306      2309      2312
      2308      2306      2309      2310      2308      2306      2309      2311
      2308      2306      2309      2312      2309      2312      2315      2316
      2309      2312      2315      2317      2309      2312      2315      2318
      2310      2309      2312      2313      2310      2309      2312      2314
      2310      2309      2312      2315      2311      2309      2312      2313
      2311      2309      2312      2314      2311      2309      2312      2315
      2313      2312      2315      2316      2313      2312      2315      2317
      2313      2312      2315      2318      2314      2312      2315      2316
      2314      2312      2315      2317      2314      2312      2315      2318
      2319      2323      2326      2327      2319      2323      2326      2328
      2319      2323      2326      2333      2320      2319      2323      2324
      2320      2319      2323      2325      2320      2319      2323      2326
      2321      2319      2323      2324      2321      2319      2323      2325
      2321      2319      2323      2326      2322      2319      2323      2324
      2322      2319      2323      2325      2322      2319      2323      2326
      2323      2326      2333      2329      2324      2323      2326      2327
      2324      2323      2326      2328      2324      2323      2326      2333
      2325      2323      2326      2327      2325      2323      2326      2328
      2325      2323      2326      2333      2326      2333      2329      2330
      2326      2333      2329      2331      2326      2333      2329      2332
      2327      2326      2333      2329      2328      2326      2333      2329
      2329      2332      2334      2335      2329      2332      2334      2336
      2329      2332      2334      2337      2330      2329      2332      2334
      2331      2329      2332      2334      2332      2334      2337      2338
      2332      2334      2337      2339      2332      2334      2337      2345
      2333      2329      2332      2334      2334      2337      2339      2340
      2334      2337      2345      2346      2334      2337      2345      2347
      2334      2337      2345      2348      2335      2334      2337      2338
      2335      2334      2337      2339      2335      2334      2337      2345
      2336      2334      2337      2338      2336      2334      2337      2339
      2336      2334      2337      2345      2337      2339      2340      2341
      2337      2339      2340      2342      2337      2345      2348      2349
      2338      2337      2339      2340      2338      2337      2345      2346
      2338      2337      2345      2347      2338      2337      2345      2348
      2339      2337      2345      2346      2339      2337      2345      2347
      2339      2337      2345      2348      2339      2340      2342      2343
      2339      2340      2342      2344      2339      2340      2342      2354
      2340      2339      2337      2345      2340      2342      2354      2355
      2340      2342      2354      2356      2340      2342      2354      2357
      2341      2340      2342      2343      2341      2340      2342      2344
      2341      2340      2342      2354      2342      2354      2357      2358
      2342      2354      2357      2359      2342      2354      2357      2360
      2343      2342      2354      2355      2343      2342      2354      2356
      2343      2342      2354      2357      2344      2342      2354      2355
      2344      2342      2354      2356      2344      2342      2354      2357
      2345      2348      2349      2350      2345      2348      2349      2351
      2346      2345      2348      2349      2347      2345      2348      2349
      2348      2349      2351      2352      2348      2349      2351      2353
      2348      2349      2351      2401      2349      2351      2401      2402
      2349      2351      2401      2403      2349      2351      2401      2404
      2350      2349      2351      2352      2350      2349      2351      2353
      2350      2349      2351      2401      2351      2401      2404      2405
      2351      2401      2404      2406      2351      2401      2404      2407
      2352      2351      2401      2402      2352      2351      2401      2403
      2352      2351      2401      2404      2353      2351      2401      2402
      2353      2351      2401      2403      2353      2351      2401      2404
      2354      2357      2360      2361      2354      2357      2360      2362
      2354      2357      2360      2363      2355      2354      2357      2358
      2355      2354      2357      2359      2355      2354      2357      2360
      2356      2354      2357      2358      2356      2354      2357      2359
      2356      2354      2357      2360      2357      2360      2363      2364
      2357      2360      2363      2365      2357      2360      2363      2366
      2358      2357      2360      2361      2358      2357      2360      2362
      2358      2357      2360      2363      2359      2357      2360      2361
      2359      2357      2360      2362      2359      2357      2360      2363
      2360      2363      2366      2367      2360      2363      2366      2368
      2360      2363      2366      2369      2361      2360      2363      2364
      2361      2360      2363      2365      2361      2360      2363      2366
      2362      2360      2363      2364      2362      2360      2363      2365
      2362      2360      2363      2366      2363      2366      2369      2370
      2363      2366      2369      2371      2363      2366      2369      2372
      2364      2363      2366      2367      2364      2363      2366      2368
      2364      2363      2366      2369      2365      2363      2366      2367
      2365      2363      2366      2368      2365      2363      2366      2369
      2366      2369      2372      2373      2366      2369      2372      2374
      2367      2366      2369      2370      2367      2366      2369      2371
      2367      2366      2369      2372      2368      2366      2369      2370
      2368      2366      2369      2371      2368      2366      2369      2372
      2369      2372      2374      2375      2369      2372      2374      2376
      2370      2369      2372      2373      2370      2369      2372      2374
      2371      2369      2372      2373      2371      2369      2372      2374
      2372      2374      2376      2377      2372      2374      2376      2378
      2372      2374      2376      2379      2373      2372      2374      2375
      2373      2372      2374      2376      2374      2376      2379      2380
      2374      2376      2379      2381      2374      2376      2379      2382
      2375      2374      2376      2377      2375      2374      2376      2378
      2375      2374      2376      2379      2376      2379      2382      2383
      2376      2379      2382      2384      2376      2379      2382      2385
      2377      2376      2379      2380      2377      2376      2379      2381
      2377      2376      2379      2382      2378      2376      2379      2380
      2378      2376      2379      2381      2378      2376      2379      2382
      2379      2382      2385      2386      2379      2382      2385      2387
      2379      2382      2385      2388      2380      2379      2382      2383
      2380      2379      2382      2384      2380      2379      2382      2385
      2381      2379      2382      2383      2381      2379      2382      2384
      2381      2379      2382      2385      2382      2385      2388      2389
      2382      2385      2388      2390      2382      2385      2388      2391
      2383      2382      2385      2386      2383      2382      2385      2387
      2383      2382      2385      2388      2384      2382      2385      2386
      2384      2382      2385      2387      2384      2382      2385      2388
      2385      2388      2391      2392      2385      2388      2391      2393
      2385      2388      2391      2394      2386      2385      2388      2389
      2386      2385      2388      2390      2386      2385      2388      2391
      2387      2385      2388      2389      2387      2385      2388      2390
      2387      2385      2388      2391      2388      2391      2394      2395
      2388      2391      2394      2396      2388      2391      2394      2397
      2389      2388      2391      2392      2389      2388      2391      2393
      2389      2388      2391      2394      2390      2388      2391      2392
      2390      2388      2391      2393      2390      2388      2391      2394
      2391      2394      2397      2398      2391      2394      2397      2399
      2391      2394      2397      2400      2392      2391      2394      2395
      2392      2391      2394      2396      2392      2391      2394      2397
      2393      2391      2394      2395      2393      2391      2394      2396
      2393      2391      2394      2397      2395      2394      2397      2398
      2395      2394      2397      2399      2395      2394      2397      2400
      2396      2394      2397      2398      2396      2394      2397      2399
      2396      2394      2397      2400      2401      2404      2407      2408
      2401      2404      2407      2409      2401      2404      2407      2410
      2402      2401      2404      2405      2402      2401      2404      2406
      2402      2401      2404      2407      2403      2401      2404      2405
      2403      2401      2404      2406      2403      2401      2404      2407
      2404      2407      2410      2411      2404      2407      2410      2412
      2404      2407      2410      2413      2405      2404      2407      2408
      2405      2404      2407      2409      2405      2404      2407      2410
      2406      2404      2407      2408      2406      2404      2407      2409
      2406      2404      2407      2410      2407      2410      2413      2414
      2407      2410      2413      2415      2407      2410      2413      2416
      2408      2407      2410      2411      2408      2407      2410      2412
      2408      2407      2410      2413      2409      2407      2410      2411
      2409      2407      2410      2412      2409      2407      2410      2413
      2410      2413      2416      2417      2410      2413      2416      2418
      2410      2413      2416      2419      2411      2410      2413      2414
      2411      2410      2413      2415      2411      2410      2413      2416
      2412      2410      2413      2414      2412      2410      2413      2415
      2412      2410      2413      2416      2413      2416      2419      2420
      2413      2416      2419      2421      2413      2416      2419      2422
      2414      2413      2416      2417      2414      2413      2416      2418
      2414      2413      2416      2419      2415      2413      2416      2417
      2415      2413      2416      2418      2415      2413      2416      2419
      2416      2419      2422      2423      2416      2419      2422      2424
      2416      2419      2422      2425      2417      2416      2419      2420
      2417      2416      2419      2421      2417      2416      2419      2422
      2418      2416      2419      2420      2418      2416      2419      2421
      2418      2416      2419      2422      2419      2422      2425      2426
      2419      2422      2425      2427      2419      2422      2425      2428
      2420      2419      2422      2423      2420      2419      2422      2424
      2420      2419      2422      2425      2421      2419      2422      2423
      2421      2419      2422      2424      2421      2419      2422      2425
      2422      2425      2428      2429      2422      2425      2428      2430
      2422      2425      2428      2431      2423      2422      2425      2426
      2423      2422      2425      2427      2423      2422      2425      2428
      2424      2422      2425      2426      2424      2422      2425      2427
      2424      2422      2425      2428      2425      2428      2431      2432
      2425      2428      2431      2433      2425      2428      2431      2434
      2426      2425      2428      2429      2426      2425      2428      2430
      2426      2425      2428      2431      2427      2425      2428      2429
      2427      2425      2428      2430      2427      2425      2428      2431
      2428      2431      2434      2435      2428      2431      2434      2436
      2428      2431      2434      2437      2429      2428      2431      2432
      2429      2428      2431      2433      2429      2428      2431      2434
      2430      2428      2431      2432      2430      2428      2431      2433
      2430      2428      2431      2434      2431      2434      2437      2438
      2431      2434      2437      2439      2431      2434      2437      2440
      2432      2431      2434      2435      2432      2431      2434      2436
      2432      2431      2434      2437      2433      2431      2434      2435
      2433      2431      2434      2436      2433      2431      2434      2437
      2434      2437      2440      2441      2434      2437      2440      2442
      2434      2437      2440      2443      2435      2434      2437      2438
      2435      2434      2437      2439      2435      2434      2437      2440
      2436      2434      2437      2438      2436      2434      2437      2439
      2436      2434      2437      2440      2438      2437      2440      2441
      2438      2437      2440      2442      2438      2437      2440      2443
      2439      2437      2440      2441      2439      2437      2440      2442
      2439      2437      2440      2443      2444      2448      2451      2452
      2444      2448      2451      2453      2444      2448      2451      2458
      2445      2444      2448      2449      2445      2444      2448      2450
      2445      2444      2448      2451      2446      2444      2448      2449
      2446      2444      2448      2450      2446      2444      2448      2451
      2447      2444      2448      2449      2447      2444      2448      2450
      2447      2444      2448      2451      2448      2451      2458      2454
      2449      2448      2451      2452      2449      2448      2451      2453
      2449      2448      2451      2458      2450      2448      2451      2452
      2450      2448      2451      2453      2450      2448      2451      2458
      2451      2458      2454      2455      2451      2458      2454      2456
      2451      2458      2454      2457      2452      2451      2458      2454
      2453      2451      2458      2454      2454      2457      2459      2460
      2454      2457      2459      2461      2454      2457      2459      2462
      2455      2454      2457      2459      2456      2454      2457      2459
      2457      2459      2462      2463      2457      2459      2462      2464
      2457      2459      2462      2470      2458      2454      2457      2459
      2459      2462      2464      2465      2459      2462      2470      2471
      2459      2462      2470      2472      2459      2462      2470      2473
      2460      2459      2462      2463      2460      2459      2462      2464
      2460      2459      2462      2470      2461      2459      2462      2463
      2461      2459      2462      2464      2461      2459      2462      2470
      2462      2464      2465      2466      2462      2464      2465      2467
      2462      2470      2473      2474      2463      2462      2464      2465
      2463      2462      2470      2471      2463      2462      2470      2472
      2463      2462      2470      2473      2464      2462      2470      2471
      2464      2462      2470      2472      2464      2462      2470      2473
      2464      2465      2467      2468      2464      2465      2467      2469
      2464      2465      2467      2479      2465      2464      2462      2470
      2465      2467      2479      2480      2465      2467      2479      2481
      2465      2467      2479      2482      2466      2465      2467      2468
      2466      2465      2467      2469      2466      2465      2467      2479
      2467      2479      2482      2483      2467      2479      2482      2484
      2467      2479      2482      2485      2468      2467      2479      2480
      2468      2467      2479      2481      2468      2467      2479      2482
      2469      2467      2479      2480      2469      2467      2479      2481
      2469      2467      2479      2482      2470      2473      2474      2475
      2470      2473      2474      2476      2471      2470      2473      2474
      2472      2470      2473      2474      2473      2474      2476      2477
      2473      2474      2476      2478      2473      2474      2476      2520
      2474      2476      2520      2521      2474      2476      2520      2522
      2474      2476      2520      2523      2475      2474      2476      2477
      2475      2474      2476      2478      2475      2474      2476      2520
      2476      2520      2523      2524      2476      2520      2523      2525
      2476      2520      2523      2526      2477      2476      2520      2521
      2477      2476      2520      2522      2477      2476      2520      2523
      2478      2476      2520      2521      2478      2476      2520      2522
      2478      2476      2520      2523      2479      2482      2485      2486
      2479      2482      2485      2487      2479      2482      2485      2488
      2480      2479      2482      2483      2480      2479      2482      2484
      2480      2479      2482      2485      2481      2479      2482      2483
      2481      2479      2482      2484      2481      2479      2482      2485
      2482      2485      2488      2489      2482      2485      2488      2490
      2482      2485      2488      2491      2483      2482      2485      2486
      2483      2482      2485      2487      2483      2482      2485      2488
      2484      2482      2485      2486      2484      2482      2485      2487
      2484      2482      2485      2488      2485      2488      2491      2492
      2485      2488      2491      2493      2485      2488      2491      2494
      2486      2485      2488      2489      2486      2485      2488      2490
      2486      2485      2488      2491      2487      2485      2488      2489
      2487      2485      2488      2490      2487      2485      2488      2491
      2488      2491      2494      2495      2488      2491      2494      2496
      2488      2491      2494      2497      2489      2488      2491      2492
      2489      2488      2491      2493      2489      2488      2491      2494
      2490      2488      2491      2492      2490      2488      2491      2493
      2490      2488      2491      2494      2491      2494      2497      2498
      2491      2494      2497      2499      2492      2491      2494      2495
      2492      2491      2494      2496      2492      2491      2494      2497
      2493      2491      2494      2495      2493      2491      2494      2496
      2493      2491      2494      2497      2494      2497      2499      2500
      2494      2497      2499      2501      2495      2494      2497      2498
      2495      2494      2497      2499      2496      2494      2497      2498
      2496      2494      2497      2499      2497      2499      2501      2502
      2497      2499      2501      2503      2497      2499      2501      2504
      2498      2497      2499      2500      2498      2497      2499      2501
      2499      2501      2504      2505      2499      2501      2504      2506
      2499      2501      2504      2507      2500      2499      2501      2502
      2500      2499      2501      2503      2500      2499      2501      2504
      2501      2504      2507      2508      2501      2504      2507      2509
      2501      2504      2507      2510      2502      2501      2504      2505
      2502      2501      2504      2506      2502      2501      2504      2507
      2503      2501      2504      2505      2503      2501      2504      2506
      2503      2501      2504      2507      2504      2507      2510      2511
      2504      2507      2510      2512      2504      2507      2510      2513
      2505      2504      2507      2508      2505      2504      2507      2509
      2505      2504      2507      2510      2506      2504      2507      2508
      2506      2504      2507      2509      2506      2504      2507      2510
      2507      2510      2513      2514      2507      2510      2513      2515
      2507      2510      2513      2516      2508      2507      2510      2511
      2508      2507      2510      2512      2508      2507      2510      2513
      2509      2507      2510      2511      2509      2507      2510      2512
      2509      2507      2510      2513      2510      2513      2516      2517
      2510      2513      2516      2518      2510      2513      2516      2519
      2511      2510      2513      2514      2511      2510      2513      2515
      2511      2510      2513      2516      2512      2510      2513      2514
      2512      2510      2513      2515      2512      2510      2513      2516
      2514      2513      2516      2517      2514      2513      2516      2518
      2514      2513      2516      2519      2515      2513      2516      2517
      2515      2513      2516      2518      2515      2513      2516      2519
      2520      2523      2526      2527      2520      2523      2526      2528
      2520      2523      2526      2529      2521      2520      2523      2524
      2521      2520      2523      2525      2521      2520      2523      2526
      2522      2520      2523      2524      2522      2520      2523      2525
      2522      2520      2523      2526      2523      2526      2529      2530
      2523      2526      2529      2531      2523      2526      2529      2532
      2524      2523      2526      2527      2524      2523      2526      2528
      2524      2523      2526      2529      2525      2523      2526      2527
      2525      2523      2526      2528      2525      2523      2526      2529
      2526      2529      2532      2533      2526      2529      2532      2534
      2526      2529      2532      2535      2527      2526      2529      2530
      2527      2526      2529      2531      2527      2526      2529      2532
      2528      2526      2529      2530      2528      2526      2529      2531
      2528      2526      2529      2532      2529      2532      2535      2536
      2529      2532      2535      2537      2529      2532      2535      2538
      2530      2529      2532      2533      2530      2529      2532      2534
      2530      2529      2532      2535      2531      2529      2532      2533
      2531      2529      2532      2534      2531      2529      2532      2535
      2532      2535      2538      2539      2532      2535      2538      2540
      2533      2532      2535      2536      2533      2532      2535      2537
      2533      2532      2535      2538      2534      2532      2535      2536
      2534      2532      2535      2537      2534      2532      2535      2538
      2535      2538      2540      2541      2535      2538      2540      2542
      2536      2535      2538      2539      2536      2535      2538      2540
      2537      2535      2538      2539      2537      2535      2538      2540
      2538      2540      2542      2543      2538      2540      2542      2544
      2538      2540      2542      2545      2539      2538      2540      2541
      2539      2538      2540      2542      2540      2542      2545      2546
      2540      2542      2545      2547      2540      2542      2545      2548
      2541      2540      2542      2543      2541      2540      2542      2544
      2541      2540      2542      2545      2542      2545      2548      2549
      2542      2545      2548      2550      2542      2545      2548      2551
      2543      2542      2545      2546      2543      2542      2545      2547
      2543      2542      2545      2548      2544      2542      2545      2546
      2544      2542      2545      2547      2544      2542      2545      2548
      2545      2548      2551      2552      2545      2548      2551      2553
      2545      2548      2551      2554      2546      2545      2548      2549
      2546      2545      2548      2550      2546      2545      2548      2551
      2547      2545      2548      2549      2547      2545      2548      2550
      2547      2545      2548      2551      2548      2551      2554      2555
      2548      2551      2554      2556      2548      2551      2554      2557
      2549      2548      2551      2552      2549      2548      2551      2553
      2549      2548      2551      2554      2550      2548      2551      2552
      2550      2548      2551      2553      2550      2548      2551      2554
      2551      2554      2557      2558      2551      2554      2557      2559
      2551      2554      2557      2560      2552      2551      2554      2555
      2552      2551      2554      2556      2552      2551      2554      2557
      2553      2551      2554      2555      2553      2551      2554      2556
      2553      2551      2554      2557      2554      2557      2560      2561
      2554      2557      2560      2562      2554      2557      2560      2563
      2555      2554      2557      2558      2555      2554      2557      2559
      2555      2554      2557      2560      2556      2554      2557      2558
      2556      2554      2557      2559      2556      2554      2557      2560
      2557      2560      2563      2564      2557      2560      2563      2565
      2557      2560      2563      2566      2558      2557      2560      2561
      2558      2557      2560      2562      2558      2557      2560      2563
      2559      2557      2560      2561      2559      2557      2560      2562
      2559      2557      2560      2563      2561      2560      2563      2564
      2561      2560      2563      2565      2561      2560      2563      2566
      2562      2560      2563      2564      2562      2560      2563      2565
      2562      2560      2563      2566      2567      2571      2574      2575
      2567      2571      2574      2576      2567      2571      2574      2581
      2568      2567      2571      2572      2568      2567      2571      2573
      2568      2567      2571      2574      2569      2567      2571      2572
      2569      2567      2571      2573      2569      2567      2571      2574
      2570      2567      2571      2572      2570      2567      2571      2573
      2570      2567      2571      2574      2571      2574      2581      2577
      2572      2571      2574      2575      2572      2571      2574      2576
      2572      2571      2574      2581      2573      2571      2574      2575
      2573      2571      2574      2576      2573      2571      2574      2581
      2574      2581      2577      2578      2574      2581      2577      2579
      2574      2581      2577      2580      2575      2574      2581      2577
      2576      2574      2581      2577      2577      2580      2582      2583
      2577      2580      2582      2584      2577      2580      2582      2585
      2578      2577      2580      2582      2579      2577      2580      2582
      2580      2582      2585      2586      2580      2582      2585      2587
      2580      2582      2585      2593      2581      2577      2580      2582
      2582      2585      2587      2588      2582      2585      2593      2594
      2582      2585      2593      2595      2582      2585      2593      2596
      2583      2582      2585      2586      2583      2582      2585      2587
      2583      2582      2585      2593      2584      2582      2585      2586
      2584      2582      2585      2587      2584      2582      2585      2593
      2585      2587      2588      2589      2585      2587      2588      2590
      2585      2593      2596      2597      2586      2585      2587      2588
      2586      2585      2593      2594      2586      2585      2593      2595
      2586      2585      2593      2596      2587      2585      2593      2594
      2587      2585      2593      2595      2587      2585      2593      2596
      2587      2588      2590      2591      2587      2588      2590      2592
      2587      2588      2590      2602      2588      2587      2585      2593
      2588      2590      2602      2603      2588      2590      2602      2604
      2588      2590      2602      2605      2589      2588      2590      2591
      2589      2588      2590      2592      2589      2588      2590      2602
      2590      2602      2605      2606      2590      2602      2605      2607
      2590      2602      2605      2608      2591      2590      2602      2603
      2591      2590      2602      2604      2591      2590      2602      2605
      2592      2590      2602      2603      2592      2590      2602      2604
      2592      2590      2602      2605      2593      2596      2597      2598
      2593      2596      2597      2599      2594      2593      2596      2597
      2595      2593      2596      2597      2596      2597      2599      2600
      2596      2597      2599      2601      2596      2597      2599      2646
      2597      2599      2646      2647      2597      2599      2646      2648
      2597      2599      2646      2649      2598      2597      2599      2600
      2598      2597      2599      2601      2598      2597      2599      2646
      2599      2646      2649      2650      2599      2646      2649      2651
      2599      2646      2649      2652      2600      2599      2646      2647
      2600      2599      2646      2648      2600      2599      2646      2649
      2601      2599      2646      2647      2601      2599      2646      2648
      2601      2599      2646      2649      2602      2605      2608      2609
      2602      2605      2608      2610      2602      2605      2608      2611
      2603      2602      2605      2606      2603      2602      2605      2607
      2603      2602      2605      2608      2604      2602      2605      2606
      2604      2602      2605      2607      2604      2602      2605      2608
      2605      2608      2611      2612      2605      2608      2611      2613
      2605      2608      2611      2614      2606      2605      2608      2609
      2606      2605      2608      2610      2606      2605      2608      2611
      2607      2605      2608      2609      2607      2605      2608      2610
      2607      2605      2608      2611      2608      2611      2614      2615
      2608      2611      2614      2616      2608      2611      2614      2617
      2609      2608      2611      2612      2609      2608      2611      2613
      2609      2608      2611      2614      2610      2608      2611      2612
      2610      2608      2611      2613      2610      2608      2611      2614
      2611      2614      2617      2618      2611      2614      2617      2619
      2611      2614      2617      2620      2612      2611      2614      2615
      2612      2611      2614      2616      2612      2611      2614      2617
      2613      2611      2614      2615      2613      2611      2614      2616
      2613      2611      2614      2617      2614      2617      2620      2621
      2614      2617      2620      2622      2614      2617      2620      2625
      2615      2614      2617      2618      2615      2614      2617      2619
      2615      2614      2617      2620      2616      2614      2617      2618
      2616      2614      2617      2619      2616      2614      2617      2620
      2617      2620      2622      2623      2617      2620      2622      2624
      2617      2620      2622      2625      2617      2620      2625      2622
      2617      2620      2625      2626      2617      2620      2625      2627
      2618      2617      2620      2621      2618      2617      2620      2622
      2618      2617      2620      2625      2619      2617      2620      2621
      2619      2617      2620      2622      2619      2617      2620      2625
      2620      2622      2625      2626      2620      2622      2625      2627
      2620      2625      2622      2623      2620      2625      2622      2624
      2620      2625      2627      2628      2620      2625      2627      2629
      2620      2625      2627      2630      2621      2620      2622      2623
      2621      2620      2622      2624      2621      2620      2622      2625
      2621      2620      2625      2622      2621      2620      2625      2626
      2621      2620      2625      2627      2622      2620      2625      2626
      2622      2620      2625      2627      2622      2625      2627      2628
      2622      2625      2627      2629      2622      2625      2627      2630
      2623      2622      2620      2625      2623      2622      2625      2626
      2623      2622      2625      2627      2624      2622      2620      2625
      2624      2622      2625      2626      2624      2622      2625      2627
      2625      2627      2630      2631      2625      2627      2630      2632
      2625      2627      2630      2633      2626      2625      2627      2628
      2626      2625      2627      2629      2626      2625      2627      2630
      2627      2630      2633      2634      2627      2630      2633      2635
      2627      2630      2633      2636      2628      2627      2630      2631
      2628      2627      2630      2632      2628      2627      2630      2633
      2629      2627      2630      2631      2629      2627      2630      2632
      2629      2627      2630      2633      2630      2633      2636      2637
      2630      2633      2636      2638      2630      2633      2636      2639
      2631      2630      2633      2634      2631      2630      2633      2635
      2631      2630      2633      2636      2632      2630      2633      2634
      2632      2630      2633      2635      2632      2630      2633      2636
      2633      2636      2639      2640      2633      2636      2639      2641
      2633      2636      2639      2642      2634      2633      2636      2637
      2634      2633      2636      2638      2634      2633      2636      2639
      2635      2633      2636      2637      2635      2633      2636      2638
      2635      2633      2636      2639      2636      2639      2642      2643
      2636      2639      2642      2644      2636      2639      2642      2645
      2637      2636      2639      2640      2637      2636      2639      2641
      2637      2636      2639      2642      2638      2636      2639      2640
      2638      2636      2639      2641      2638      2636      2639      2642
      2640      2639      2642      2643      2640      2639      2642      2644
      2640      2639      2642      2645      2641      2639      2642      2643
      2641      2639      2642      2644      2641      2639      2642      2645
      2646      2649      2652      2653      2646      2649      2652      2654
      2646      2649      2652      2655      2647      2646      2649      2650
      2647      2646      2649      2651      2647      2646      2649      2652
      2648      2646      2649      2650      2648      2646      2649      2651
      2648      2646      2649      2652      2649      2652      2655      2656
      2649      2652      2655      2657      2649      2652      2655      2658
      2650      2649      2652      2653      2650      2649      2652      2654
      2650      2649      2652      2655      2651      2649      2652      2653
      2651      2649      2652      2654      2651      2649      2652      2655
      2652      2655      2658      2659      2652      2655      2658      2660
      2652      2655      2658      2661      2653      2652      2655      2656
      2653      2652      2655      2657      2653      2652      2655      2658
      2654      2652      2655      2656      2654      2652      2655      2657
      2654      2652      2655      2658      2655      2658      2661      2662
      2655      2658      2661      2663      2655      2658      2661      2664
      2656      2655      2658      2659      2656      2655      2658      2660
      2656      2655      2658      2661      2657      2655      2658      2659
      2657      2655      2658      2660      2657      2655      2658      2661
      2658      2661      2664      2665      2658      2661      2664      2666
      2658      2661      2664      2667      2659      2658      2661      2662
      2659      2658      2661      2663      2659      2658      2661      2664
      2660      2658      2661      2662      2660      2658      2661      2663
      2660      2658      2661      2664      2661      2664      2667      2668
      2661      2664      2667      2669      2661      2664      2667      2670
      2662      2661      2664      2665      2662      2661      2664      2666
      2662      2661      2664      2667      2663      2661      2664      2665
      2663      2661      2664      2666      2663      2661      2664      2667
      2664      2667      2670      2671      2664      2667      2670      2672
      2664      2667      2670      2673      2665      2664      2667      2668
      2665      2664      2667      2669      2665      2664      2667      2670
      2666      2664      2667      2668      2666      2664      2667      2669
      2666      2664      2667      2670      2667      2670      2673      2674
      2667      2670      2673      2675      2667      2670      2673      2676
      2668      2667      2670      2671      2668      2667      2670      2672
      2668      2667      2670      2673      2669      2667      2670      2671
      2669      2667      2670      2672      2669      2667      2670      2673
      2670      2673      2676      2677      2670      2673      2676      2678
      2670      2673      2676      2679      2671      2670      2673      2674
      2671      2670      2673      2675      2671      2670      2673      2676
      2672      2670      2673      2674      2672      2670      2673      2675
      2672      2670      2673      2676      2673      2676      2679      2680
      2673      2676      2679      2681      2673      2676      2679      2682
      2674      2673      2676      2677      2674      2673      2676      2678
      2674      2673      2676      2679      2675      2673      2676      2677
      2675      2673      2676      2678      2675      2673      2676      2679
      2676      2679      2682      2683      2676      2679      2682      2684
      2676      2679      2682      2685      2677      2676      2679      2680
      2677      2676      2679      2681      2677      2676      2679      2682
      2678      2676      2679      2680      2678      2676      2679      2681
      2678      2676      2679      2682      2679      2682      2685      2686
      2679      2682      2685      2687      2679      2682      2685      2688
      2680      2679      2682      2683      2680      2679      2682      2684
      2680      2679      2682      2685      2681      2679      2682      2683
      2681      2679      2682      2684      2681      2679      2682      2685
      2683      2682      2685      2686      2683      2682      2685      2687
      2683      2682      2685      2688      2684      2682      2685      2686
      2684      2682      2685      2687      2684      2682      2685      2688
      2689      2694      2696      2697      2689      2694      2698      2699
      2689      2694      2698      2700      2689      2694      2698      2705
      2690      2689      2692      2693      2690      2689      2694      2695
      2690      2689      2694      2696      2690      2689      2694      2698
      2691      2689      2692      2693      2691      2689      2694      2695
      2691      2689      2694      2696      2691      2689      2694      2698
      2692      2689      2694      2695      2692      2689      2694      2696
      2692      2689      2694      2698      2693      2692      2689      2694
      2694      2698      2705      2701      2695      2694      2696      2697
      2695      2694      2698      2699      2695      2694      2698      2700
      2695      2694      2698      2705      2696      2694      2698      2699
      2696      2694      2698      2700      2696      2694      2698      2705
      2697      2696      2694      2698      2698      2705      2701      2702
      2698      2705      2701      2703      2698      2705      2701      2704
      2699      2698      2705      2701      2700      2698      2705      2701
      2701      2704      2706      2707      2701      2704      2706      2708
      2701      2704      2706      2709      2702      2701      2704      2706
      2703      2701      2704      2706      2704      2706      2709      2710
      2704      2706      2709      2711      2704      2706      2709      2717
      2705      2701      2704      2706      2706      2709      2711      2712
      2706      2709      2717      2718      2706      2709      2717      2719
      2706      2709      2717      2720      2707      2706      2709      2710
      2707      2706      2709      2711      2707      2706      2709      2717
      2708      2706      2709      2710      2708      2706      2709      2711
      2708      2706      2709      2717      2709      2711      2712      2713
      2709      2711      2712      2714      2709      2717      2720      2721
      2710      2709      2711      2712      2710      2709      2717      2718
      2710      2709      2717      2719      2710      2709      2717      2720
      2711      2709      2717      2718      2711      2709      2717      2719
      2711      2709      2717      2720      2711      2712      2714      2715
      2711      2712      2714      2716      2711      2712      2714      2726
      2712      2711      2709      2717      2712      2714      2726      2727
      2712      2714      2726      2728      2712      2714      2726      2729
      2713      2712      2714      2715      2713      2712      2714      2716
      2713      2712      2714      2726      2714      2726      2729      2730
      2714      2726      2729      2731      2714      2726      2729      2732
      2715      2714      2726      2727      2715      2714      2726      2728
      2715      2714      2726      2729      2716      2714      2726      2727
      2716      2714      2726      2728      2716      2714      2726      2729
      2717      2720      2721      2722      2717      2720      2721      2723
      2718      2717      2720      2721      2719      2717      2720      2721
      2720      2721      2723      2724      2720      2721      2723      2725
      2720      2721      2723      2767      2721      2723      2767      2768
      2721      2723      2767      2769      2721      2723      2767      2770
      2722      2721      2723      2724      2722      2721      2723      2725
      2722      2721      2723      2767      2723      2767      2770      2771
      2723      2767      2770      2772      2723      2767      2770      2773
      2724      2723      2767      2768      2724      2723      2767      2769
      2724      2723      2767      2770      2725      2723      2767      2768
      2725      2723      2767      2769      2725      2723      2767      2770
      2726      2729      2732      2733      2726      2729      2732      2734
      2726      2729      2732      2735      2727      2726      2729      2730
      2727      2726      2729      2731      2727      2726      2729      2732
      2728      2726      2729      2730      2728      2726      2729      2731
      2728      2726      2729      2732      2729      2732      2735      2736
      2729      2732      2735      2737      2729      2732      2735      2738
      2730      2729      2732      2733      2730      2729      2732      2734
      2730      2729      2732      2735      2731      2729      2732      2733
      2731      2729      2732      2734      2731      2729      2732      2735
      2732      2735      2738      2739      2732      2735      2738      2740
      2732      2735      2738      2741      2733      2732      2735      2736
      2733      2732      2735      2737      2733      2732      2735      2738
      2734      2732      2735      2736      2734      2732      2735      2737
      2734      2732      2735      2738      2735      2738      2741      2742
      2735      2738      2741      2743      2735      2738      2741      2744
      2736      2735      2738      2739      2736      2735      2738      2740
      2736      2735      2738      2741      2737      2735      2738      2739
      2737      2735      2738      2740      2737      2735      2738      2741
      2738      2741      2744      2745      2738      2741      2744      2746
      2739      2738      2741      2742      2739      2738      2741      2743
      2739      2738      2741      2744      2740      2738      2741      2742
      2740      2738      2741      2743      2740      2738      2741      2744
      2741      2744      2746      2747      2741      2744      2746      2748
      2742      2741      2744      2745      2742      2741      2744      2746
      2743      2741      2744      2745      2743      2741      2744      2746
      2744      2746      2748      2749      2744      2746      2748      2750
      2744      2746      2748      2751      2745      2744      2746      2747
      2745      2744      2746      2748      2746      2748      2751      2752
      2746      2748      2751      2753      2746      2748      2751      2754
      2747      2746      2748      2749      2747      2746      2748      2750
      2747      2746      2748      2751      2748      2751      2754      2755
      2748      2751      2754      2756      2748      2751      2754      2757
      2749      2748      2751      2752      2749      2748      2751      2753
      2749      2748      2751      2754      2750      2748      2751      2752
      2750      2748      2751      2753      2750      2748      2751      2754
      2751      2754      2757      2758      2751      2754      2757      2759
      2751      2754      2757      2760      2752      2751      2754      2755
      2752      2751      2754      2756      2752      2751      2754      2757
      2753      2751      2754      2755      2753      2751      2754      2756
      2753      2751      2754      2757      2754      2757      2760      2761
      2754      2757      2760      2762      2754      2757      2760      2763
      2755      2754      2757      2758      2755      2754      2757      2759
      2755      2754      2757      2760      2756      2754      2757      2758
      2756      2754      2757      2759      2756      2754      2757      2760
      2757      2760      2763      2764      2757      2760      2763      2765
      2757      2760      2763      2766      2758      2757      2760      2761
      2758      2757      2760      2762      2758      2757      2760      2763
      2759      2757      2760      2761      2759      2757      2760      2762
      2759      2757      2760      2763      2761      2760      2763      2764
      2761      2760      2763      2765      2761      2760      2763      2766
      2762      2760      2763      2764      2762      2760      2763      2765
      2762      2760      2763      2766      2767      2770      2773      2774
      2767      2770      2773      2775      2767      2770      2773      2776
      2768      2767      2770      2771      2768      2767      2770      2772
      2768      2767      2770      2773      2769      2767      2770      2771
      2769      2767      2770      2772      2769      2767      2770      2773
      2770      2773      2776      2777      2770      2773      2776      2778
      2770      2773      2776      2779      2771      2770      2773      2774
      2771      2770      2773      2775      2771      2770      2773      2776
      2772      2770      2773      2774      2772      2770      2773      2775
      2772      2770      2773      2776      2773      2776      2779      2780
      2773      2776      2779      2781      2773      2776      2779      2782
      2774      2773      2776      2777      2774      2773      2776      2778
      2774      2773      2776      2779      2775      2773      2776      2777
      2775      2773      2776      2778      2775      2773      2776      2779
      2776      2779      2782      2783      2776      2779      2782      2784
      2776      2779      2782      2785      2777      2776      2779      2780
      2777      2776      2779      2781      2777      2776      2779      2782
      2778      2776      2779      2780      2778      2776      2779      2781
      2778      2776      2779      2782      2779      2782      2785      2786
      2779      2782      2785      2787      2779      2782      2785      2788
      2780      2779      2782      2783      2780      2779      2782      2784
      2780      2779      2782      2785      2781      2779      2782      2783
      2781      2779      2782      2784      2781      2779      2782      2785
      2782      2785      2788      2789      2782      2785      2788      2790
      2782      2785      2788      2791      2783      2782      2785      2786
      2783      2782      2785      2787      2783      2782      2785      2788
      2784      2782      2785      2786      2784      2782      2785      2787
      2784      2782      2785      2788      2785      2788      2791      2792
      2785      2788      2791      2793      2785      2788      2791      2794
      2786      2785      2788      2789      2786      2785      2788      2790
      2786      2785      2788      2791      2787      2785      2788      2789
      2787      2785      2788      2790      2787      2785      2788      2791
      2788      2791      2794      2795      2788      2791      2794      2796
      2788      2791      2794      2797      2789      2788      2791      2792
      2789      2788      2791      2793      2789      2788      2791      2794
      2790      2788      2791      2792      2790      2788      2791      2793
      2790      2788      2791      2794      2791      2794      2797      2798
      2791      2794      2797      2799      2791      2794      2797      2800
      2792      2791      2794      2795      2792      2791      2794      2796
      2792      2791      2794      2797      2793      2791      2794      2795
      2793      2791      2794      2796      2793      2791      2794      2797
      2794      2797      2800      2801      2794      2797      2800      2802
      2794      2797      2800      2803      2795      2794      2797      2798
      2795      2794      2797      2799      2795      2794      2797      2800
      2796      2794      2797      2798      2796      2794      2797      2799
      2796      2794      2797      2800      2797      2800      2803      2804
      2797      2800      2803      2805      2797      2800      2803      2806
      2798      2797      2800      2801      2798      2797      2800      2802
      2798      2797      2800      2803      2799      2797      2800      2801
      2799      2797      2800      2802      2799      2797      2800      2803
      2800      2803      2806      2807      2800      2803      2806      2808
      2800      2803      2806      2809      2801      2800      2803      2804
      2801      2800      2803      2805      2801      2800      2803      2806
      2802      2800      2803      2804      2802      2800      2803      2805
      2802      2800      2803      2806      2804      2803      2806      2807
      2804      2803      2806      2808      2804      2803      2806      2809
      2805      2803      2806      2807      2805      2803      2806      2808
      2805      2803      2806      2809      2810      2814      2817      2818
      2810      2814      2817      2819      2810      2814      2817      2824
      2811      2810      2814      2815      2811      2810      2814      2816
      2811      2810      2814      2817      2812      2810      2814      2815
      2812      2810      2814      2816      2812      2810      2814      2817
      2813      2810      2814      2815      2813      2810      2814      2816
      2813      2810      2814      2817      2814      2817      2824      2820
      2815      2814      2817      2818      2815      2814      2817      2819
      2815      2814      2817      2824      2816      2814      2817      2818
      2816      2814      2817      2819      2816      2814      2817      2824
      2817      2824      2820      2821      2817      2824      2820      2822
      2817      2824      2820      2823      2818      2817      2824      2820
      2819      2817      2824      2820      2820      2823      2825      2826
      2820      2823      2825      2827      2820      2823      2825      2828
      2821      2820      2823      2825      2822      2820      2823      2825
      2823      2825      2828      2829      2823      2825      2828      2830
      2823      2825      2828      2836      2824      2820      2823      2825
      2825      2828      2830      2831      2825      2828      2836      2837
      2825      2828      2836      2838      2825      2828      2836      2839
      2826      2825      2828      2829      2826      2825      2828      2830
      2826      2825      2828      2836      2827      2825      2828      2829
      2827      2825      2828      2830      2827      2825      2828      2836
      2828      2830      2831      2832      2828      2830      2831      2833
      2828      2836      2839      2840      2829      2828      2830      2831
      2829      2828      2836      2837      2829      2828      2836      2838
      2829      2828      2836      2839      2830      2828      2836      2837
      2830      2828      2836      2838      2830      2828      2836      2839
      2830      2831      2833      2834      2830      2831      2833      2835
      2830      2831      2833      2845      2831      2830      2828      2836
      2831      2833      2845      2846      2831      2833      2845      2847
      2831      2833      2845      2848      2832      2831      2833      2834
      2832      2831      2833      2835      2832      2831      2833      2845
      2833      2845      2848      2849      2833      2845      2848      2850
      2833      2845      2848      2851      2834      2833      2845      2846
      2834      2833      2845      2847      2834      2833      2845      2848
      2835      2833      2845      2846      2835      2833      2845      2847
      2835      2833      2845      2848      2836      2839      2840      2841
      2836      2839      2840      2842      2837      2836      2839      2840
      2838      2836      2839      2840      2839      2840      2842      2843
      2839      2840      2842      2844      2839      2840      2842      2889
      2840      2842      2889      2890      2840      2842      2889      2891
      2840      2842      2889      2892      2841      2840      2842      2843
      2841      2840      2842      2844      2841      2840      2842      2889
      2842      2889      2892      2893      2842      2889      2892      2894
      2842      2889      2892      2895      2843      2842      2889      2890
      2843      2842      2889      2891      2843      2842      2889      2892
      2844      2842      2889      2890      2844      2842      2889      2891
      2844      2842      2889      2892      2845      2848      2851      2852
      2845      2848      2851      2853      2845      2848      2851      2854
      2846      2845      2848      2849      2846      2845      2848      2850
      2846      2845      2848      2851      2847      2845      2848      2849
      2847      2845      2848      2850      2847      2845      2848      2851
      2848      2851      2854      2855      2848      2851      2854      2856
      2848      2851      2854      2857      2849      2848      2851      2852
      2849      2848      2851      2853      2849      2848      2851      2854
      2850      2848      2851      2852      2850      2848      2851      2853
      2850      2848      2851      2854      2851      2854      2857      2858
      2851      2854      2857      2859      2851      2854      2857      2860
      2852      2851      2854      2855      2852      2851      2854      2856
      2852      2851      2854      2857      2853      2851      2854      2855
      2853      2851      2854      2856      2853      2851      2854      2857
      2854      2857      2860      2861      2854      2857      2860      2862
      2854      2857      2860      2863      2855      2854      2857      2858
      2855      2854      2857      2859      2855      2854      2857      2860
      2856      2854      2857      2858      2856      2854      2857      2859
      2856      2854      2857      2860      2857      2860      2863      2864
      2857      2860      2863      2865      2857      2860      2863      2868
      2858      2857      2860      2861      2858      2857      2860      2862
      2858      2857      2860      2863      2859      2857      2860      2861
      2859      2857      2860      2862      2859      2857      2860      2863
      2860      2863      2865      2866      2860      2863      2865      2867
      2860      2863      2865      2868      2860      2863      2868      2865
      2860      2863      2868      2869      2860      2863      2868      2870
      2861      2860      2863      2864      2861      2860      2863      2865
      2861      2860      2863      2868      2862      2860      2863      2864
      2862      2860      2863      2865      2862      2860      2863      2868
      2863      2865      2868      2869      2863      2865      2868      2870
      2863      2868      2865      2866      2863      2868      2865      2867
      2863      2868      2870      2871      2863      2868      2870      2872
      2863      2868      2870      2873      2864      2863      2865      2866
      2864      2863      2865      2867      2864      2863      2865      2868
      2864      2863      2868      2865      2864      2863      2868      2869
      2864      2863      2868      2870      2865      2863      2868      2869
      2865      2863      2868      2870      2865      2868      2870      2871
      2865      2868      2870      2872      2865      2868      2870      2873
      2866      2865      2863      2868      2866      2865      2868      2869
      2866      2865      2868      2870      2867      2865      2863      2868
      2867      2865      2868      2869      2867      2865      2868      2870
      2868      2870      2873      2874      2868      2870      2873      2875
      2868      2870      2873      2876      2869      2868      2870      2871
      2869      2868      2870      2872      2869      2868      2870      2873
      2870      2873      2876      2877      2870      2873      2876      2878
      2870      2873      2876      2879      2871      2870      2873      2874
      2871      2870      2873      2875      2871      2870      2873      2876
      2872      2870      2873      2874      2872      2870      2873      2875
      2872      2870      2873      2876      2873      2876      2879      2880
      2873      2876      2879      2881      2873      2876      2879      2882
      2874      2873      2876      2877      2874      2873      2876      2878
      2874      2873      2876      2879      2875      2873      2876      2877
      2875      2873      2876      2878      2875      2873      2876      2879
      2876      2879      2882      2883      2876      2879      2882      2884
      2876      2879      2882      2885      2877      2876      2879      2880
      2877      2876      2879      2881      2877      2876      2879      2882
      2878      2876      2879      2880      2878      2876      2879      2881
      2878      2876      2879      2882      2879      2882      2885      2886
      2879      2882      2885      2887      2879      2882      2885      2888
      2880      2879      2882      2883      2880      2879      2882      2884
      2880      2879      2882      2885      2881      2879      2882      2883
      2881      2879      2882      2884      2881      2879      2882      2885
      2883      2882      2885      2886      2883      2882      2885      2887
      2883      2882      2885      2888      2884      2882      2885      2886
      2884      2882      2885      2887      2884      2882      2885      2888
      2889      2892      2895      2896      2889      2892      2895      2897
      2889      2892      2895      2898      2890      2889      2892      2893
      2890      2889      2892      2894      2890      2889      2892      2895
      2891      2889      2892      2893      2891      2889      2892      2894
      2891      2889      2892      2895      2892      2895      2898      2899
      2892      2895      2898      2900      2892      2895      2898      2901
      2893      2892      2895      2896      2893      2892      2895      2897
      2893      2892      2895      2898      2894      2892      2895      2896
      2894      2892      2895      2897      2894      2892      2895      2898
      2895      2898      2901      2902      2895      2898      2901      2903
      2895      2898      2901      2904      2896      2895      2898      2899
      2896      2895      2898      2900      2896      2895      2898      2901
      2897      2895      2898      2899      2897      2895      2898      2900
      2897      2895      2898      2901      2898      2901      2904      2905
      2898      2901      2904      2906      2898      2901      2904      2907
      2899      2898      2901      2902      2899      2898      2901      2903
      2899      2898      2901      2904      2900      2898      2901      2902
      2900      2898      2901      2903      2900      2898      2901      2904
      2901      2904      2907      2908      2901      2904      2907      2909
      2901      2904      2907      2910      2902      2901      2904      2905
      2902      2901      2904      2906      2902      2901      2904      2907
      2903      2901      2904      2905      2903      2901      2904      2906
      2903      2901      2904      2907      2904      2907      2910      2911
      2904      2907      2910      2912      2904      2907      2910      2913
      2905      2904      2907      2908      2905      2904      2907      2909
      2905      2904      2907      2910      2906      2904      2907      2908
      2906      2904      2907      2909      2906      2904      2907      2910
      2907      2910      2913      2914      2907      2910      2913      2915
      2907      2910      2913      2916      2908      2907      2910      2911
      2908      2907      2910      2912      2908      2907      2910      2913
      2909      2907      2910      2911      2909      2907      2910      2912
      2909      2907      2910      2913      2910      2913      2916      2917
      2910      2913      2916      2918      2910      2913      2916      2919
      2911      2910      2913      2914      2911      2910      2913      2915
      2911      2910      2913      2916      2912      2910      2913      2914
      2912      2910      2913      2915      2912      2910      2913      2916
      2913      2916      2919      2920      2913      2916      2919      2921
      2913      2916      2919      2922      2914      2913      2916      2917
      2914      2913      2916      2918      2914      2913      2916      2919
      2915      2913      2916      2917      2915      2913      2916      2918
      2915      2913      2916      2919      2916      2919      2922      2923
      2916      2919      2922      2924      2916      2919      2922      2925
      2917      2916      2919      2920      2917      2916      2919      2921
      2917      2916      2919      2922      2918      2916      2919      2920
      2918      2916      2919      2921      2918      2916      2919      2922
      2919      2922      2925      2926      2919      2922      2925      2927
      2919      2922      2925      2928      2920      2919      2922      2923
      2920      2919      2922      2924      2920      2919      2922      2925
      2921      2919      2922      2923      2921      2919      2922      2924
      2921      2919      2922      2925      2922      2925      2928      2929
      2922      2925      2928      2930      2922      2925      2928      2931
      2923      2922      2925      2926      2923      2922      2925      2927
      2923      2922      2925      2928      2924      2922      2925      2926
      2924      2922      2925      2927      2924      2922      2925      2928
      2926      2925      2928      2929      2926      2925      2928      2930
      2926      2925      2928      2931      2927      2925      2928      2929
      2927      2925      2928      2930      2927      2925      2928      2931
      2932      2936      2939      2940      2932      2936      2939      2941
      2932      2936      2939      2946      2933      2932      2936      2937
      2933      2932      2936      2938      2933      2932      2936      2939
      2934      2932      2936      2937      2934      2932      2936      2938
      2934      2932      2936      2939      2935      2932      2936      2937
      2935      2932      2936      2938      2935      2932      2936      2939
      2936      2939      2946      2942      2937      2936      2939      2940
      2937      2936      2939      2941      2937      2936      2939      2946
      2938      2936      2939      2940      2938      2936      2939      2941
      2938      2936      2939      2946      2939      2946      2942      2943
      2939      2946      2942      2944      2939      2946      2942      2945
      2940      2939      2946      2942      2941      2939      2946      2942
      2942      2945      2947      2948      2942      2945      2947      2949
      2942      2945      2947      2950      2943      2942      2945      2947
      2944      2942      2945      2947      2945      2947      2950      2951
      2945      2947      2950      2952      2945      2947      2950      2958
      2946      2942      2945      2947      2947      2950      2952      2953
      2947      2950      2958      2959      2947      2950      2958      2960
      2947      2950      2958      2961      2948      2947      2950      2951
      2948      2947      2950      2952      2948      2947      2950      2958
      2949      2947      2950      2951      2949      2947      2950      2952
      2949      2947      2950      2958      2950      2952      2953      2954
      2950      2952      2953      2955      2950      2958      2961      2962
      2951      2950      2952      2953      2951      2950      2958      2959
      2951      2950      2958      2960      2951      2950      2958      2961
      2952      2950      2958      2959      2952      2950      2958      2960
      2952      2950      2958      2961      2952      2953      2955      2956
      2952      2953      2955      2957      2952      2953      2955      2967
      2953      2952      2950      2958      2953      2955      2967      2968
      2953      2955      2967      2969      2953      2955      2967      2970
      2954      2953      2955      2956      2954      2953      2955      2957
      2954      2953      2955      2967      2955      2967      2970      2971
      2955      2967      2970      2972      2955      2967      2970      2973
      2956      2955      2967      2968      2956      2955      2967      2969
      2956      2955      2967      2970      2957      2955      2967      2968
      2957      2955      2967      2969      2957      2955      2967      2970
      2958      2961      2962      2963      2958      2961      2962      2964
      2959      2958      2961      2962      2960      2958      2961      2962
      2961      2962      2964      2965      2961      2962      2964      2966
      2961      2962      2964      3011      2962      2964      3011      3012
      2962      2964      3011      3013      2962      2964      3011      3014
      2963      2962      2964      2965      2963      2962      2964      2966
      2963      2962      2964      3011      2964      3011      3014      3015
      2964      3011      3014      3016      2964      3011      3014      3017
      2965      2964      3011      3012      2965      2964      3011      3013
      2965      2964      3011      3014      2966      2964      3011      3012
      2966      2964      3011      3013      2966      2964      3011      3014
      2967      2970      2973      2974      2967      2970      2973      2975
      2967      2970      2973      2976      2968      2967      2970      2971
      2968      2967      2970      2972      2968      2967      2970      2973
      2969      2967      2970      2971      2969      2967      2970      2972
      2969      2967      2970      2973      2970      2973      2976      2977
      2970      2973      2976      2978      2970      2973      2976      2979
      2971      2970      2973      2974      2971      2970      2973      2975
      2971      2970      2973      2976      2972      2970      2973      2974
      2972      2970      2973      2975      2972      2970      2973      2976
      2973      2976      2979      2980      2973      2976      2979      2981
      2973      2976      2979      2982      2974      2973      2976      2977
      2974      2973      2976      2978      2974      2973      2976      2979
      2975      2973      2976      2977      2975      2973      2976      2978
      2975      2973      2976      2979      2976      2979      2982      2983
      2976      2979      2982      2984      2976      2979      2982      2985
      2977      2976      2979      2980      2977      2976      2979      2981
      2977      2976      2979      2982      2978      2976      2979      2980
      2978      2976      2979      2981      2978      2976      2979      2982
      2979      2982      2985      2986      2979      2982      2985      2987
      2979      2982      2985      2990      2980      2979      2982      2983
      2980      2979      2982      2984      2980      2979      2982      2985
      2981      2979      2982      2983      2981      2979      2982      2984
      2981      2979      2982      2985      2982      2985      2987      2988
      2982      2985      2987      2989      2982      2985      2987      2990
      2982      2985      2990      2987      2982      2985      2990      2991
      2982      2985      2990      2992      2983      2982      2985      2986
      2983      2982      2985      2987      2983      2982      2985      2990
      2984      2982      2985      2986      2984      2982      2985      2987
      2984      2982      2985      2990      2985      2987      2990      2991
      2985      2987      2990      2992      2985      2990      2987      2988
      2985      2990      2987      2989      2985      2990      2992      2993
      2985      2990      2992      2994      2985      2990      2992      2995
      2986      2985      2987      2988      2986      2985      2987      2989
      2986      2985      2987      2990      2986      2985      2990      2987
      2986      2985      2990      2991      2986      2985      2990      2992
      2987      2985      2990      2991      2987      2985      2990      2992
      2987      2990      2992      2993      2987      2990      2992      2994
      2987      2990      2992      2995      2988      2987      2985      2990
      2988      2987      2990      2991      2988      2987      2990      2992
      2989      2987      2985      2990      2989      2987      2990      2991
      2989      2987      2990      2992      2990      2992      2995      2996
      2990      2992      2995      2997      2990      2992      2995      2998
      2991      2990      2992      2993      2991      2990      2992      2994
      2991      2990      2992      2995      2992      2995      2998      2999
      2992      2995      2998      3000      2992      2995      2998      3001
      2993      2992      2995      2996      2993      2992      2995      2997
      2993      2992      2995      2998      2994      2992      2995      2996
      2994      2992      2995      2997      2994      2992      2995      2998
      2995      2998      3001      3002      2995      2998      3001      3003
      2995      2998      3001      3004      2996      2995      2998      2999
      2996      2995      2998      3000      2996      2995      2998      3001
      2997      2995      2998      2999      2997      2995      2998      3000
      2997      2995      2998      3001      2998      3001      3004      3005
      2998      3001      3004      3006      2998      3001      3004      3007
      2999      2998      3001      3002      2999      2998      3001      3003
      2999      2998      3001      3004      3000      2998      3001      3002
      3000      2998      3001      3003      3000      2998      3001      3004
      3001      3004      3007      3008      3001      3004      3007      3009
      3001      3004      3007      3010      3002      3001      3004      3005
      3002      3001      3004      3006      3002      3001      3004      3007
      3003      3001      3004      3005      3003      3001      3004      3006
      3003      3001      3004      3007      3005      3004      3007      3008
      3005      3004      3007      3009      3005      3004      3007      3010
      3006      3004      3007      3008      3006      3004      3007      3009
      3006      3004      3007      3010      3011      3014      3017      3018
      3011      3014      3017      3019      3011      3014      3017      3020
      3012      3011      3014      3015      3012      3011      3014      3016
      3012      3011      3014      3017      3013      3011      3014      3015
      3013      3011      3014      3016      3013      3011      3014      3017
      3014      3017      3020      3021      3014      3017      3020      3022
      3014      3017      3020      3023      3015      3014      3017      3018
      3015      3014      3017      3019      3015      3014      3017      3020
      3016      3014      3017      3018      3016      3014      3017      3019
      3016      3014      3017      3020      3017      3020      3023      3024
      3017      3020      3023      3025      3017      3020      3023      3026
      3018      3017      3020      3021      3018      3017      3020      3022
      3018      3017      3020      3023      3019      3017      3020      3021
      3019      3017      3020      3022      3019      3017      3020      3023
      3020      3023      3026      3027      3020      3023      3026      3028
      3020      3023      3026      3029      3021      3020      3023      3024
      3021      3020      3023      3025      3021      3020      3023      3026
      3022      3020      3023      3024      3022      3020      3023      3025
      3022      3020      3023      3026      3023      3026      3029      3030
      3023      3026      3029      3031      3023      3026      3029      3032
      3024      3023      3026      3027      3024      3023      3026      3028
      3024      3023      3026      3029      3025      3023      3026      3027
      3025      3023      3026      3028      3025      3023      3026      3029
      3026      3029      3032      3033      3026      3029      3032      3034
      3026      3029      3032      3035      3027      3026      3029      3030
      3027      3026      3029      3031      3027      3026      3029      3032
      3028      3026      3029      3030      3028      3026      3029      3031
      3028      3026      3029      3032      3029      3032      3035      3036
      3029      3032      3035      3037      3029      3032      3035      3038
      3030      3029      3032      3033      3030      3029      3032      3034
      3030      3029      3032      3035      3031      3029      3032      3033
      3031      3029      3032      3034      3031      3029      3032      3035
      3032      3035      3038      3039      3032      3035      3038      3040
      3032      3035      3038      3041      3033      3032      3035      3036
      3033      3032      3035      3037      3033      3032      3035      3038
      3034      3032      3035      3036      3034      3032      3035      3037
      3034      3032      3035      3038      3035      3038      3041      3042
      3035      3038      3041      3043      3035      3038      3041      3044
      3036      3035      3038      3039      3036      3035      3038      3040
      3036      3035      3038      3041      3037      3035      3038      3039
      3037      3035      3038      3040      3037      3035      3038      3041
      3038      3041      3044      3045      3038      3041      3044      3046
      3038      3041      3044      3047      3039      3038      3041      3042
      3039      3038      3041      3043      3039      3038      3041      3044
      3040      3038      3041      3042      3040      3038      3041      3043
      3040      3038      3041      3044      3041      3044      3047      3048
      3041      3044      3047      3049      3041      3044      3047      3050
      3042      3041      3044      3045      3042      3041      3044      3046
      3042      3041      3044      3047      3043      3041      3044      3045
      3043      3041      3044      3046      3043      3041      3044      3047
      3044      3047      3050      3051      3044      3047      3050      3052
      3044      3047      3050      3053      3045      3044      3047      3048
      3045      3044      3047      3049      3045      3044      3047      3050
      3046      3044      3047      3048      3046      3044      3047      3049
      3046      3044      3047      3050      3048      3047      3050      3051
      3048      3047      3050      3052      3048      3047      3050      3053
      3049      3047      3050      3051      3049      3047      3050      3052
      3049      3047      3050      3053      3054      3058      3061      3062
      3054      3058      3061      3063      3054      3058      3061      3068
      3055      3054      3058      3059      3055      3054      3058      3060
      3055      3054      3058      3061      3056      3054      3058      3059
      3056      3054      3058      3060      3056      3054      3058      3061
      3057      3054      3058      3059      3057      3054      3058      3060
      3057      3054      3058      3061      3058      3061      3068      3064
      3059      3058      3061      3062      3059      3058      3061      3063
      3059      3058      3061      3068      3060      3058      3061      3062
      3060      3058      3061      3063      3060      3058      3061      3068
      3061      3068      3064      3065      3061      3068      3064      3066
      3061      3068      3064      3067      3062      3061      3068      3064
      3063      3061      3068      3064      3064      3067      3069      3070
      3064      3067      3069      3071      3064      3067      3069      3072
      3065      3064      3067      3069      3066      3064      3067      3069
      3067      3069      3072      3073      3067      3069      3072      3074
      3067      3069      3072      3080      3068      3064      3067      3069
      3069      3072      3074      3075      3069      3072      3080      3081
      3069      3072      3080      3082      3069      3072      3080      3083
      3070      3069      3072      3073      3070      3069      3072      3074
      3070      3069      3072      3080      3071      3069      3072      3073
      3071      3069      3072      3074      3071      3069      3072      3080
      3072      3074      3075      3076      3072      3074      3075      3077
      3072      3080      3083      3084      3073      3072      3074      3075
      3073      3072      3080      3081      3073      3072      3080      3082
      3073      3072      3080      3083      3074      3072      3080      3081
      3074      3072      3080      3082      3074      3072      3080      3083
      3074      3075      3077      3078      3074      3075      3077      3079
      3074      3075      3077      3089      3075      3074      3072      3080
      3075      3077      3089      3090      3075      3077      3089      3091
      3075      3077      3089      3092      3076      3075      3077      3078
      3076      3075      3077      3079      3076      3075      3077      3089
      3077      3089      3092      3093      3077      3089      3092      3094
      3077      3089      3092      3095      3078      3077      3089      3090
      3078      3077      3089      3091      3078      3077      3089      3092
      3079      3077      3089      3090      3079      3077      3089      3091
      3079      3077      3089      3092      3080      3083      3084      3085
      3080      3083      3084      3086      3081      3080      3083      3084
      3082      3080      3083      3084      3083      3084      3086      3087
      3083      3084      3086      3088      3083      3084      3086      3133
      3084      3086      3133      3134      3084      3086      3133      3135
      3084      3086      3133      3136      3085      3084      3086      3087
      3085      3084      3086      3088      3085      3084      3086      3133
      3086      3133      3136      3137      3086      3133      3136      3138
      3086      3133      3136      3139      3087      3086      3133      3134
      3087      3086      3133      3135      3087      3086      3133      3136
      3088      3086      3133      3134      3088      3086      3133      3135
      3088      3086      3133      3136      3089      3092      3095      3096
      3089      3092      3095      3097      3089      3092      3095      3098
      3090      3089      3092      3093      3090      3089      3092      3094
      3090      3089      3092      3095      3091      3089      3092      3093
      3091      3089      3092      3094      3091      3089      3092      3095
      3092      3095      3098      3099      3092      3095      3098      3100
      3092      3095      3098      3101      3093      3092      3095      3096
      3093      3092      3095      3097      3093      3092      3095      3098
      3094      3092      3095      3096      3094      3092      3095      3097
      3094      3092      3095      3098      3095      3098      3101      3102
      3095      3098      3101      3103      3095      3098      3101      3104
      3096      3095      3098      3099      3096      3095      3098      3100
      3096      3095      3098      3101      3097      3095      3098      3099
      3097      3095      3098      3100      3097      3095      3098      3101
      3098      3101      3104      3105      3098      3101      3104      3106
      3098      3101      3104      3107      3099      3098      3101      3102
      3099      3098      3101      3103      3099      3098      3101      3104
      3100      3098      3101      3102      3100      3098      3101      3103
      3100      3098      3101      3104      3101      3104      3107      3108
      3101      3104      3107      3109      3101      3104      3107      3112
      3102      3101      3104      3105      3102      3101      3104      3106
      3102      3101      3104      3107      3103      3101      3104      3105
      3103      3101      3104      3106      3103      3101      3104      3107
      3104      3107      3109      3110      3104      3107      3109      3111
      3104      3107      3109      3112      3104      3107      3112      3109
      3104      3107      3112      3113      3104      3107      3112      3114
      3105      3104      3107      3108      3105      3104      3107      3109
      3105      3104      3107      3112      3106      3104      3107      3108
      3106      3104      3107      3109      3106      3104      3107      3112
      3107      3109      3112      3113      3107      3109      3112      3114
      3107      3112      3109      3110      3107      3112      3109      3111
      3107      3112      3114      3115      3107      3112      3114      3116
      3107      3112      3114      3117      3108      3107      3109      3110
      3108      3107      3109      3111      3108      3107      3109      3112
      3108      3107      3112      3109      3108      3107      3112      3113
      3108      3107      3112      3114      3109      3107      3112      3113
      3109      3107      3112      3114      3109      3112      3114      3115
      3109      3112      3114      3116      3109      3112      3114      3117
      3110      3109      3107      3112      3110      3109      3112      3113
      3110      3109      3112      3114      3111      3109      3107      3112
      3111      3109      3112      3113      3111      3109      3112      3114
      3112      3114      3117      3118      3112      3114      3117      3119
      3112      3114      3117      3120      3113      3112      3114      3115
      3113      3112      3114      3116      3113      3112      3114      3117
      3114      3117      3120      3121      3114      3117      3120      3122
      3114      3117      3120      3123      3115      3114      3117      3118
      3115      3114      3117      3119      3115      3114      3117      3120
      3116      3114      3117      3118      3116      3114      3117      3119
      3116      3114      3117      3120      3117      3120      3123      3124
      3117      3120      3123      3125      3117      3120      3123      3126
      3118      3117      3120      3121      3118      3117      3120      3122
      3118      3117      3120      3123      3119      3117      3120      3121
      3119      3117      3120      3122      3119      3117      3120      3123
      3120      3123      3126      3127      3120      3123      3126      3128
      3120      3123      3126      3129      3121      3120      3123      3124
      3121      3120      3123      3125      3121      3120      3123      3126
      3122      3120      3123      3124      3122      3120      3123      3125
      3122      3120      3123      3126      3123      3126      3129      3130
      3123      3126      3129      3131      3123      3126      3129      3132
      3124      3123      3126      3127      3124      3123      3126      3128
      3124      3123      3126      3129      3125      3123      3126      3127
      3125      3123      3126      3128      3125      3123      3126      3129
      3127      3126      3129      3130      3127      3126      3129      3131
      3127      3126      3129      3132      3128      3126      3129      3130
      3128      3126      3129      3131      3128      3126      3129      3132
      3133      3136      3139      3140      3133      3136      3139      3141
      3133      3136      3139      3142      3134      3133      3136      3137
      3134      3133      3136      3138      3134      3133      3136      3139
      3135      3133      3136      3137      3135      3133      3136      3138
      3135      3133      3136      3139      3136      3139      3142      3143
      3136      3139      3142      3144      3136      3139      3142      3145
      3137      3136      3139      3140      3137      3136      3139      3141
      3137      3136      3139      3142      3138      3136      3139      3140
      3138      3136      3139      3141      3138      3136      3139      3142
      3139      3142      3145      3146      3139      3142      3145      3147
      3139      3142      3145      3148      3140      3139      3142      3143
      3140      3139      3142      3144      3140      3139      3142      3145
      3141      3139      3142      3143      3141      3139      3142      3144
      3141      3139      3142      3145      3142      3145      3148      3149
      3142      3145      3148      3150      3142      3145      3148      3151
      3143      3142      3145      3146      3143      3142      3145      3147
      3143      3142      3145      3148      3144      3142      3145      3146
      3144      3142      3145      3147      3144      3142      3145      3148
      3145      3148      3151      3152      3145      3148      3151      3153
      3145      3148      3151      3154      3146      3145      3148      3149
      3146      3145      3148      3150      3146      3145      3148      3151
      3147      3145      3148      3149      3147      3145      3148      3150
      3147      3145      3148      3151      3148      3151      3154      3155
      3148      3151      3154      3156      3148      3151      3154      3157
      3149      3148      3151      3152      3149      3148      3151      3153
      3149      3148      3151      3154      3150      3148      3151      3152
      3150      3148      3151      3153      3150      3148      3151      3154
      3151      3154      3157      3158      3151      3154      3157      3159
      3151      3154      3157      3160      3152      3151      3154      3155
      3152      3151      3154      3156      3152      3151      3154      3157
      3153      3151      3154      3155      3153      3151      3154      3156
      3153      3151      3154      3157      3154      3157      3160      3161
      3154      3157      3160      3162      3154      3157      3160      3163
      3155      3154      3157      3158      3155      3154      3157      3159
      3155      3154      3157      3160      3156      3154      3157      3158
      3156      3154      3157      3159      3156      3154      3157      3160
      3157      3160      3163      3164      3157      3160      3163      3165
      3157      3160      3163      3166      3158      3157      3160      3161
      3158      3157      3160      3162      3158      3157      3160      3163
      3159      3157      3160      3161      3159      3157      3160      3162
      3159      3157      3160      3163      3160      3163      3166      3167
      3160      3163      3166      3168      3160      3163      3166      3169
      3161      3160      3163      3164      3161      3160      3163      3165
      3161      3160      3163      3166      3162      3160      3163      3164
      3162      3160      3163      3165      3162      3160      3163      3166
      3163      3166      3169      3170      3163      3166      3169      3171
      3163      3166      3169      3172      3164      3163      3166      3167
      3164      3163      3166      3168      3164      3163      3166      3169
      3165      3163      3166      3167      3165      3163      3166      3168
      3165      3163      3166      3169      3166      3169      3172      3173
      3166      3169      3172      3174      3166      3169      3172      3175
      3167      3166      3169      3170      3167      3166      3169      3171
      3167      3166      3169      3172      3168      3166      3169      3170
      3168      3166      3169      3171      3168      3166      3169      3172
      3170      3169      3172      3173      3170      3169      3172      3174
      3170      3169      3172      3175      3171      3169      3172      3173
      3171      3169      3172      3174      3171      3169      3172      3175
      3176      3180      3183      3184      3176      3180      3183      3185
      3176      3180      3183      3190      3177      3176      3180      3181
      3177      3176      3180      3182      3177      3176      3180      3183
      3178      3176      3180      3181      3178      3176      3180      3182
      3178      3176      3180      3183      3179      3176      3180      3181
      3179      3176      3180      3182      3179      3176      3180      3183
      3180      3183      3190      3186      3181      3180      3183      3184
      3181      3180      3183      3185      3181      3180      3183      3190
      3182      3180      3183      3184      3182      3180      3183      3185
      3182      3180      3183      3190      3183      3190      3186      3187
      3183      3190      3186      3188      3183      3190      3186      3189
      3184      3183      3190      3186      3185      3183      3190      3186
      3186      3189      3191      3192      3186      3189      3191      3193
      3186      3189      3191      3194      3187      3186      3189      3191
      3188      3186      3189      3191      3189      3191      3194      3195
      3189      3191      3194      3196      3189      3191      3194      3202
      3190      3186      3189      3191      3191      3194      3196      3197
      3191      3194      3202      3203      3191      3194      3202      3204
      3191      3194      3202      3205      3192      3191      3194      3195
      3192      3191      3194      3196      3192      3191      3194      3202
      3193      3191      3194      3195      3193      3191      3194      3196
      3193      3191      3194      3202      3194      3196      3197      3198
      3194      3196      3197      3199      3194      3202      3205      3206
      3195      3194      3196      3197      3195      3194      3202      3203
      3195      3194      3202      3204      3195      3194      3202      3205
      3196      3194      3202      3203      3196      3194      3202      3204
      3196      3194      3202      3205      3196      3197      3199      3200
      3196      3197      3199      3201      3196      3197      3199      3211
      3197      3196      3194      3202      3197      3199      3211      3212
      3197      3199      3211      3213      3197      3199      3211      3214
      3198      3197      3199      3200      3198      3197      3199      3201
      3198      3197      3199      3211      3199      3211      3214      3215
      3199      3211      3214      3216      3199      3211      3214      3217
      3200      3199      3211      3212      3200      3199      3211      3213
      3200      3199      3211      3214      3201      3199      3211      3212
      3201      3199      3211      3213      3201      3199      3211      3214
      3202      3205      3206      3207      3202      3205      3206      3208
      3203      3202      3205      3206      3204      3202      3205      3206
      3205      3206      3208      3209      3205      3206      3208      3210
      3205      3206      3208      3255      3206      3208      3255      3256
      3206      3208      3255      3257      3206      3208      3255      3258
      3207      3206      3208      3209      3207      3206      3208      3210
      3207      3206      3208      3255      3208      3255      3258      3259
      3208      3255      3258      3260      3208      3255      3258      3261
      3209      3208      3255      3256      3209      3208      3255      3257
      3209      3208      3255      3258      3210      3208      3255      3256
      3210      3208      3255      3257      3210      3208      3255      3258
      3211      3214      3217      3218      3211      3214      3217      3219
      3211      3214      3217      3220      3212      3211      3214      3215
      3212      3211      3214      3216      3212      3211      3214      3217
      3213      3211      3214      3215      3213      3211      3214      3216
      3213      3211      3214      3217      3214      3217      3220      3221
      3214      3217      3220      3222      3214      3217      3220      3223
      3215      3214      3217      3218      3215      3214      3217      3219
      3215      3214      3217      3220      3216      3214      3217      3218
      3216      3214      3217      3219      3216      3214      3217      3220
      3217      3220      3223      3224      3217      3220      3223      3225
      3217      3220      3223      3226      3218      3217      3220      3221
      3218      3217      3220      3222      3218      3217      3220      3223
      3219      3217      3220      3221      3219      3217      3220      3222
      3219      3217      3220      3223      3220      3223      3226      3227
      3220      3223      3226      3228      3220      3223      3226      3229
      3221      3220      3223      3224      3221      3220      3223      3225
      3221      3220      3223      3226      3222      3220      3223      3224
      3222      3220      3223      3225      3222      3220      3223      3226
      3223      3226      3229      3230      3223      3226      3229      3231
      3223      3226      3229      3234      3224      3223      3226      3227
      3224      3223      3226      3228      3224      3223      3226      3229
      3225      3223      3226      3227      3225      3223      3226      3228
      3225      3223      3226      3229      3226      3229      3231      3232
      3226      3229      3231      3233      3226      3229      3231      3234
      3226      3229      3234      3231      3226      3229      3234      3235
      3226      3229      3234      3236      3227      3226      3229      3230
      3227      3226      3229      3231      3227      3226      3229      3234
      3228      3226      3229      3230      3228      3226      3229      3231
      3228      3226      3229      3234      3229      3231      3234      3235
      3229      3231      3234      3236      3229      3234      3231      3232
      3229      3234      3231      3233      3229      3234      3236      3237
      3229      3234      3236      3238      3229      3234      3236      3239
      3230      3229      3231      3232      3230      3229      3231      3233
      3230      3229      3231      3234      3230      3229      3234      3231
      3230      3229      3234      3235      3230      3229      3234      3236
      3231      3229      3234      3235      3231      3229      3234      3236
      3231      3234      3236      3237      3231      3234      3236      3238
      3231      3234      3236      3239      3232      3231      3229      3234
      3232      3231      3234      3235      3232      3231      3234      3236
      3233      3231      3229      3234      3233      3231      3234      3235
      3233      3231      3234      3236      3234      3236      3239      3240
      3234      3236      3239      3241      3234      3236      3239      3242
      3235      3234      3236      3237      3235      3234      3236      3238
      3235      3234      3236      3239      3236      3239      3242      3243
      3236      3239      3242      3244      3236      3239      3242      3245
      3237      3236      3239      3240      3237      3236      3239      3241
      3237      3236      3239      3242      3238      3236      3239      3240
      3238      3236      3239      3241      3238      3236      3239      3242
      3239      3242      3245      3246      3239      3242      3245      3247
      3239      3242      3245      3248      3240      3239      3242      3243
      3240      3239      3242      3244      3240      3239      3242      3245
      3241      3239      3242      3243      3241      3239      3242      3244
      3241      3239      3242      3245      3242      3245      3248      3249
      3242      3245      3248      3250      3242      3245      3248      3251
      3243      3242      3245      3246      3243      3242      3245      3247
      3243      3242      3245      3248      3244      3242      3245      3246
      3244      3242      3245      3247      3244      3242      3245      3248
      3245      3248      3251      3252      3245      3248      3251      3253
      3245      3248      3251      3254      3246      3245      3248      3249
      3246      3245      3248      3250      3246      3245      3248      3251
      3247      3245      3248      3249      3247      3245      3248      3250
      3247      3245      3248      3251      3249      3248      3251      3252
      3249      3248      3251      3253      3249      3248      3251      3254
      3250      3248      3251      3252      3250      3248      3251      3253
      3250      3248      3251      3254      3255      3258      3261      3262
      3255      3258      3261      3263      3255      3258      3261      3264
      3256      3255      3258      3259      3256      3255      3258      3260
      3256      3255      3258      3261      3257      3255      3258      3259
      3257      3255      3258      3260      3257      3255      3258      3261
      3258      3261      3264      3265      3258      3261      3264      3266
      3258      3261      3264      3267      3259      3258      3261      3262
      3259      3258      3261      3263      3259      3258      3261      3264
      3260      3258      3261      3262      3260      3258      3261      3263
      3260      3258      3261      3264      3261      3264      3267      3268
      3261      3264      3267      3269      3261      3264      3267      3270
      3262      3261      3264      3265      3262      3261      3264      3266
      3262      3261      3264      3267      3263      3261      3264      3265
      3263      3261      3264      3266      3263      3261      3264      3267
      3264      3267      3270      3271      3264      3267      3270      3272
      3264      3267      3270      3273      3265      3264      3267      3268
      3265      3264      3267      3269      3265      3264      3267      3270
      3266      3264      3267      3268      3266      3264      3267      3269
      3266      3264      3267      3270      3267      3270      3273      3274
      3267      3270      3273      3275      3267      3270      3273      3276
      3268      3267      3270      3271      3268      3267      3270      3272
      3268      3267      3270      3273      3269      3267      3270      3271
      3269      3267      3270      3272      3269      3267      3270      3273
      3270      3273      3276      3277      3270      3273      3276      3278
      3270      3273      3276      3279      3271      3270      3273      3274
      3271      3270      3273      3275      3271      3270      3273      3276
      3272      3270      3273      3274      3272      3270      3273      3275
      3272      3270      3273      3276      3273      3276      3279      3280
      3273      3276      3279      3281      3273      3276      3279      3282
      3274      3273      3276      3277      3274      3273      3276      3278
      3274      3273      3276      3279      3275      3273      3276      3277
      3275      3273      3276      3278      3275      3273      3276      3279
      3276      3279      3282      3283      3276      3279      3282      3284
      3276      3279      3282      3285      3277      3276      3279      3280
      3277      3276      3279      3281      3277      3276      3279      3282
      3278      3276      3279      3280      3278      3276      3279      3281
      3278      3276      3279      3282      3279      3282      3285      3286
      3279      3282      3285      3287      3279      3282      3285      3288
      3280      3279      3282      3283      3280      3279      3282      3284
      3280      3279      3282      3285      3281      3279      3282      3283
      3281      3279      3282      3284      3281      3279      3282      3285
      3282      3285      3288      3289      3282      3285      3288      3290
      3282      3285      3288      3291      3283      3282      3285      3286
      3283      3282      3285      3287      3283      3282      3285      3288
      3284      3282      3285      3286      3284      3282      3285      3287
      3284      3282      3285      3288      3285      3288      3291      3292
      3285      3288      3291      3293      3285      3288      3291      3294
      3286      3285      3288      3289      3286      3285      3288      3290
      3286      3285      3288      3291      3287      3285      3288      3289
      3287      3285      3288      3290      3287      3285      3288      3291
      3288      3291      3294      3295      3288      3291      3294      3296
      3288      3291      3294      3297      3289      3288      3291      3292
      3289      3288      3291      3293      3289      3288      3291      3294
      3290      3288      3291      3292      3290      3288      3291      3293
      3290      3288      3291      3294      3292      3291      3294      3295
      3292      3291      3294      3296      3292      3291      3294      3297
      3293      3291      3294      3295      3293      3291      3294      3296
      3293      3291      3294      3297      3298      3302      3305      3306
      3298      3302      3305      3307      3298      3302      3305      3312
      3299      3298      3302      3303      3299      3298      3302      3304
      3299      3298      3302      3305      3300      3298      3302      3303
      3300      3298      3302      3304      3300      3298      3302      3305
      3301      3298      3302      3303      3301      3298      3302      3304
      3301      3298      3302      3305      3302      3305      3312      3308
      3303      3302      3305      3306      3303      3302      3305      3307
      3303      3302      3305      3312      3304      3302      3305      3306
      3304      3302      3305      3307      3304      3302      3305      3312
      3305      3312      3308      3309      3305      3312      3308      3310
      3305      3312      3308      3311      3306      3305      3312      3308
      3307      3305      3312      3308      3308      3311      3313      3314
      3308      3311      3313      3315      3308      3311      3313      3316
      3309      3308      3311      3313      3310      3308      3311      3313
      3311      3313      3316      3317      3311      3313      3316      3318
      3311      3313      3316      3324      3312      3308      3311      3313
      3313      3316      3318      3319      3313      3316      3324      3325
      3313      3316      3324      3326      3313      3316      3324      3327
      3314      3313      3316      3317      3314      3313      3316      3318
      3314      3313      3316      3324      3315      3313      3316      3317
      3315      3313      3316      3318      3315      3313      3316      3324
      3316      3318      3319      3320      3316      3318      3319      3321
      3316      3324      3327      3328      3317      3316      3318      3319
      3317      3316      3324      3325      3317      3316      3324      3326
      3317      3316      3324      3327      3318      3316      3324      3325
      3318      3316      3324      3326      3318      3316      3324      3327
      3318      3319      3321      3322      3318      3319      3321      3323
      3318      3319      3321      3333      3319      3318      3316      3324
      3319      3321      3333      3334      3319      3321      3333      3335
      3319      3321      3333      3336      3320      3319      3321      3322
      3320      3319      3321      3323      3320      3319      3321      3333
      3321      3333      3336      3337      3321      3333      3336      3338
      3321      3333      3336      3339      3322      3321      3333      3334
      3322      3321      3333      3335      3322      3321      3333      3336
      3323      3321      3333      3334      3323      3321      3333      3335
      3323      3321      3333      3336      3324      3327      3328      3329
      3324      3327      3328      3330      3325      3324      3327      3328
      3326      3324      3327      3328      3327      3328      3330      3331
      3327      3328      3330      3332      3327      3328      3330      3377
      3328      3330      3377      3378      3328      3330      3377      3379
      3328      3330      3377      3380      3329      3328      3330      3331
      3329      3328      3330      3332      3329      3328      3330      3377
      3330      3377      3380      3381      3330      3377      3380      3382
      3330      3377      3380      3383      3331      3330      3377      3378
      3331      3330      3377      3379      3331      3330      3377      3380
      3332      3330      3377      3378      3332      3330      3377      3379
      3332      3330      3377      3380      3333      3336      3339      3340
      3333      3336      3339      3341      3333      3336      3339      3342
      3334      3333      3336      3337      3334      3333      3336      3338
      3334      3333      3336      3339      3335      3333      3336      3337
      3335      3333      3336      3338      3335      3333      3336      3339
      3336      3339      3342      3343      3336      3339      3342      3344
      3336      3339      3342      3345      3337      3336      3339      3340
      3337      3336      3339      3341      3337      3336      3339      3342
      3338      3336      3339      3340      3338      3336      3339      3341
      3338      3336      3339      3342      3339      3342      3345      3346
      3339      3342      3345      3347      3339      3342      3345      3348
      3340      3339      3342      3343      3340      3339      3342      3344
      3340      3339      3342      3345      3341      3339      3342      3343
      3341      3339      3342      3344      3341      3339      3342      3345
      3342      3345      3348      3349      3342      3345      3348      3350
      3342      3345      3348      3351      3343      3342      3345      3346
      3343      3342      3345      3347      3343      3342      3345      3348
      3344      3342      3345      3346      3344      3342      3345      3347
      3344      3342      3345      3348      3345      3348      3351      3352
      3345      3348      3351      3353      3345      3348      3351      3356
      3346      3345      3348      3349      3346      3345      3348      3350
      3346      3345      3348      3351      3347      3345      3348      3349
      3347      3345      3348      3350      3347      3345      3348      3351
      3348      3351      3353      3354      3348      3351      3353      3355
      3348      3351      3353      3356      3348      3351      3356      3353
      3348      3351      3356      3357      3348      3351      3356      3358
      3349      3348      3351      3352      3349      3348      3351      3353
      3349      3348      3351      3356      3350      3348      3351      3352
      3350      3348      3351      3353      3350      3348      3351      3356
      3351      3353      3356      3357      3351      3353      3356      3358
      3351      3356      3353      3354      3351      3356      3353      3355
      3351      3356      3358      3359      3351      3356      3358      3360
      3351      3356      3358      3361      3352      3351      3353      3354
      3352      3351      3353      3355      3352      3351      3353      3356
      3352      3351      3356      3353      3352      3351      3356      3357
      3352      3351      3356      3358      3353      3351      3356      3357
      3353      3351      3356      3358      3353      3356      3358      3359
      3353      3356      3358      3360      3353      3356      3358      3361
      3354      3353      3351      3356      3354      3353      3356      3357
      3354      3353      3356      3358      3355      3353      3351      3356
      3355      3353      3356      3357      3355      3353      3356      3358
      3356      3358      3361      3362      3356      3358      3361      3363
      3356      3358      3361      3364      3357      3356      3358      3359
      3357      3356      3358      3360      3357      3356      3358      3361
      3358      3361      3364      3365      3358      3361      3364      3366
      3358      3361      3364      3367      3359      3358      3361      3362
      3359      3358      3361      3363      3359      3358      3361      3364
      3360      3358      3361      3362      3360      3358      3361      3363
      3360      3358      3361      3364      3361      3364      3367      3368
      3361      3364      3367      3369      3361      3364      3367      3370
      3362      3361      3364      3365      3362      3361      3364      3366
      3362      3361      3364      3367      3363      3361      3364      3365
      3363      3361      3364      3366      3363      3361      3364      3367
      3364      3367      3370      3371      3364      3367      3370      3372
      3364      3367      3370      3373      3365      3364      3367      3368
      3365      3364      3367      3369      3365      3364      3367      3370
      3366      3364      3367      3368      3366      3364      3367      3369
      3366      3364      3367      3370      3367      3370      3373      3374
      3367      3370      3373      3375      3367      3370      3373      3376
      3368      3367      3370      3371      3368      3367      3370      3372
      3368      3367      3370      3373      3369      3367      3370      3371
      3369      3367      3370      3372      3369      3367      3370      3373
      3371      3370      3373      3374      3371      3370      3373      3375
      3371      3370      3373      3376      3372      3370      3373      3374
      3372      3370      3373      3375      3372      3370      3373      3376
      3377      3380      3383      3384      3377      3380      3383      3385
      3377      3380      3383      3386      3378      3377      3380      3381
      3378      3377      3380      3382      3378      3377      3380      3383
      3379      3377      3380      3381      3379      3377      3380      3382
      3379      3377      3380      3383      3380      3383      3386      3387
      3380      3383      3386      3388      3380      3383      3386      3389
      3381      3380      3383      3384      3381      3380      3383      3385
      3381      3380      3383      3386      3382      3380      3383      3384
      3382      3380      3383      3385      3382      3380      3383      3386
      3383      3386      3389      3390      3383      3386      3389      3391
      3383      3386      3389      3392      3384      3383      3386      3387
      3384      3383      3386      3388      3384      3383      3386      3389
      3385      3383      3386      3387      3385      3383      3386      3388
      3385      3383      3386      3389      3386      3389      3392      3393
      3386      3389      3392      3394      3386      3389      3392      3395
      3387      3386      3389      3390      3387      3386      3389      3391
      3387      3386      3389      3392      3388      3386      3389      3390
      3388      3386      3389      3391      3388      3386      3389      3392
      3389      3392      3395      3396      3389      3392      3395      3397
      3389      3392      3395      3398      3390      3389      3392      3393
      3390      3389      3392      3394      3390      3389      3392      3395
      3391      3389      3392      3393      3391      3389      3392      3394
      3391      3389      3392      3395      3392      3395      3398      3399
      3392      3395      3398      3400      3392      3395      3398      3401
      3393      3392      3395      3396      3393      3392      3395      3397
      3393      3392      3395      3398      3394      3392      3395      3396
      3394      3392      3395      3397      3394      3392      3395      3398
      3395      3398      3401      3402      3395      3398      3401      3403
      3395      3398      3401      3404      3396      3395      3398      3399
      3396      3395      3398      3400      3396      3395      3398      3401
      3397      3395      3398      3399      3397      3395      3398      3400
      3397      3395      3398      3401      3398      3401      3404      3405
      3398      3401      3404      3406      3398      3401      3404      3407
      3399      3398      3401      3402      3399      3398      3401      3403
      3399      3398      3401      3404      3400      3398      3401      3402
      3400      3398      3401      3403      3400      3398      3401      3404
      3401      3404      3407      3408      3401      3404      3407      3409
      3401      3404      3407      3410      3402      3401      3404      3405
      3402      3401      3404      3406      3402      3401      3404      3407
      3403      3401      3404      3405      3403      3401      3404      3406
      3403      3401      3404      3407      3404      3407      3410      3411
      3404      3407      3410      3412      3404      3407      3410      3413
      3405      3404      3407      3408      3405      3404      3407      3409
      3405      3404      3407      3410      3406      3404      3407      3408
      3406      3404      3407      3409      3406      3404      3407      3410
      3407      3410      3413      3414      3407      3410      3413      3415
      3407      3410      3413      3416      3408      3407      3410      3411
      3408      3407      3410      3412      3408      3407      3410      3413
      3409      3407      3410      3411      3409      3407      3410      3412
      3409      3407      3410      3413      3410      3413      3416      3417
      3410      3413      3416      3418      3410      3413      3416      3419
      3411      3410      3413      3414      3411      3410      3413      3415
      3411      3410      3413      3416      3412      3410      3413      3414
      3412      3410      3413      3415      3412      3410      3413      3416
      3414      3413      3416      3417      3414      3413      3416      3418
      3414      3413      3416      3419      3415      3413      3416      3417
      3415      3413      3416      3418      3415      3413      3416      3419
      3420      3425      3427      3428      3420      3425      3429      3430
      3420      3425      3429      3431      3420      3425      3429      3436
      3421      3420      3423      3424      3421      3420      3425      3426
      3421      3420      3425      3427      3421      3420      3425      3429
      3422      3420      3423      3424      3422      3420      3425      3426
      3422      3420      3425      3427      3422      3420      3425      3429
      3423      3420      3425      3426      3423      3420      3425      3427
      3423      3420      3425      3429      3424      3423      3420      3425
      3425      3429      3436      3432      3426      3425      3427      3428
      3426      3425      3429      3430      3426      3425      3429      3431
      3426      3425      3429      3436      3427      3425      3429      3430
      3427      3425      3429      3431      3427      3425      3429      3436
      3428      3427      3425      3429      3429      3436      3432      3433
      3429      3436      3432      3434      3429      3436      3432      3435
      3430      3429      3436      3432      3431      3429      3436      3432
      3432      3435      3437      3438      3432      3435      3437      3439
      3432      3435      3437      3440      3433      3432      3435      3437
      3434      3432      3435      3437      3435      3437      3440      3441
      3435      3437      3440      3442      3435      3437      3440      3448
      3436      3432      3435      3437      3437      3440      3442      3443
      3437      3440      3448      3449      3437      3440      3448      3450
      3437      3440      3448      3451      3438      3437      3440      3441
      3438      3437      3440      3442      3438      3437      3440      3448
      3439      3437      3440      3441      3439      3437      3440      3442
      3439      3437      3440      3448      3440      3442      3443      3444
      3440      3442      3443      3445      3440      3448      3451      3452
      3441      3440      3442      3443      3441      3440      3448      3449
      3441      3440      3448      3450      3441      3440      3448      3451
      3442      3440      3448      3449      3442      3440      3448      3450
      3442      3440      3448      3451      3442      3443      3445      3446
      3442      3443      3445      3447      3442      3443      3445      3457
      3443      3442      3440      3448      3443      3445      3457      3458
      3443      3445      3457      3459      3443      3445      3457      3460
      3444      3443      3445      3446      3444      3443      3445      3447
      3444      3443      3445      3457      3445      3457      3460      3461
      3445      3457      3460      3462      3445      3457      3460      3463
      3446      3445      3457      3458      3446      3445      3457      3459
      3446      3445      3457      3460      3447      3445      3457      3458
      3447      3445      3457      3459      3447      3445      3457      3460
      3448      3451      3452      3453      3448      3451      3452      3454
      3449      3448      3451      3452      3450      3448      3451      3452
      3451      3452      3454      3455      3451      3452      3454      3456
      3451      3452      3454      3501      3452      3454      3501      3502
      3452      3454      3501      3503      3452      3454      3501      3504
      3453      3452      3454      3455      3453      3452      3454      3456
      3453      3452      3454      3501      3454      3501      3504      3505
      3454      3501      3504      3506      3454      3501      3504      3507
      3455      3454      3501      3502      3455      3454      3501      3503
      3455      3454      3501      3504      3456      3454      3501      3502
      3456      3454      3501      3503      3456      3454      3501      3504
      3457      3460      3463      3464      3457      3460      3463      3465
      3457      3460      3463      3466      3458      3457      3460      3461
      3458      3457      3460      3462      3458      3457      3460      3463
      3459      3457      3460      3461      3459      3457      3460      3462
      3459      3457      3460      3463      3460      3463      3466      3467
      3460      3463      3466      3468      3460      3463      3466      3469
      3461      3460      3463      3464      3461      3460      3463      3465
      3461      3460      3463      3466      3462      3460      3463      3464
      3462      3460      3463      3465      3462      3460      3463      3466
      3463      3466      3469      3470      3463      3466      3469      3471
      3463      3466      3469      3472      3464      3463      3466      3467
      3464      3463      3466      3468      3464      3463      3466      3469
      3465      3463      3466      3467      3465      3463      3466      3468
      3465      3463      3466      3469      3466      3469      3472      3473
      3466      3469      3472      3474      3466      3469      3472      3475
      3467      3466      3469      3470      3467      3466      3469      3471
      3467      3466      3469      3472      3468      3466      3469      3470
      3468      3466      3469      3471      3468      3466      3469      3472
      3469      3472      3475      3476      3469      3472      3475      3477
      3469      3472      3475      3480      3470      3469      3472      3473
      3470      3469      3472      3474      3470      3469      3472      3475
      3471      3469      3472      3473      3471      3469      3472      3474
      3471      3469      3472      3475      3472      3475      3477      3478
      3472      3475      3477      3479      3472      3475      3477      3480
      3472      3475      3480      3477      3472      3475      3480      3481
      3472      3475      3480      3482      3473      3472      3475      3476
      3473      3472      3475      3477      3473      3472      3475      3480
      3474      3472      3475      3476      3474      3472      3475      3477
      3474      3472      3475      3480      3475      3477      3480      3481
      3475      3477      3480      3482      3475      3480      3477      3478
      3475      3480      3477      3479      3475      3480      3482      3483
      3475      3480      3482      3484      3475      3480      3482      3485
      3476      3475      3477      3478      3476      3475      3477      3479
      3476      3475      3477      3480      3476      3475      3480      3477
      3476      3475      3480      3481      3476      3475      3480      3482
      3477      3475      3480      3481      3477      3475      3480      3482
      3477      3480      3482      3483      3477      3480      3482      3484
      3477      3480      3482      3485      3478      3477      3475      3480
      3478      3477      3480      3481      3478      3477      3480      3482
      3479      3477      3475      3480      3479      3477      3480      3481
      3479      3477      3480      3482      3480      3482      3485      3486
      3480      3482      3485      3487      3480      3482      3485      3488
      3481      3480      3482      3483      3481      3480      3482      3484
      3481      3480      3482      3485      3482      3485      3488      3489
      3482      3485      3488      3490      3482      3485      3488      3491
      3483      3482      3485      3486      3483      3482      3485      3487
      3483      3482      3485      3488      3484      3482      3485      3486
      3484      3482      3485      3487      3484      3482      3485      3488
      3485      3488      3491      3492      3485      3488      3491      3493
      3485      3488      3491      3494      3486      3485      3488      3489
      3486      3485      3488      3490      3486      3485      3488      3491
      3487      3485      3488      3489      3487      3485      3488      3490
      3487      3485      3488      3491      3488      3491      3494      3495
      3488      3491      3494      3496      3488      3491      3494      3497
      3489      3488      3491      3492      3489      3488      3491      3493
      3489      3488      3491      3494      3490      3488      3491      3492
      3490      3488      3491      3493      3490      3488      3491      3494
      3491      3494      3497      3498      3491      3494      3497      3499
      3491      3494      3497      3500      3492      3491      3494      3495
      3492      3491      3494      3496      3492      3491      3494      3497
      3493      3491      3494      3495      3493      3491      3494      3496
      3493      3491      3494      3497      3495      3494      3497      3498
      3495      3494      3497      3499      3495      3494      3497      3500
      3496      3494      3497      3498      3496      3494      3497      3499
      3496      3494      3497      3500      3501      3504      3507      3508
      3501      3504      3507      3509      3501      3504      3507      3510
      3502      3501      3504      3505      3502      3501      3504      3506
      3502      3501      3504      3507      3503      3501      3504      3505
      3503      3501      3504      3506      3503      3501      3504      3507
      3504      3507      3510      3511      3504      3507      3510      3512
      3504      3507      3510      3513      3505      3504      3507      3508
      3505      3504      3507      3509      3505      3504      3507      3510
      3506      3504      3507      3508      3506      3504      3507      3509
      3506      3504      3507      3510      3507      3510      3513      3514
      3507      3510      3513      3515      3507      3510      3513      3516
      3508      3507      3510      3511      3508      3507      3510      3512
      3508      3507      3510      3513      3509      3507      3510      3511
      3509      3507      3510      3512      3509      3507      3510      3513
      3510      3513      3516      3517      3510      3513      3516      3518
      3510      3513      3516      3519      3511      3510      3513      3514
      3511      3510      3513      3515      3511      3510      3513      3516
      3512      3510      3513      3514      3512      3510      3513      3515
      3512      3510      3513      3516      3513      3516      3519      3520
      3513      3516      3519      3521      3513      3516      3519      3522
      3514      3513      3516      3517      3514      3513      3516      3518
      3514      3513      3516      3519      3515      3513      3516      3517
      3515      3513      3516      3518      3515      3513      3516      3519
      3516      3519      3522      3523      3516      3519      3522      3524
      3516      3519      3522      3525      3517      3516      3519      3520
      3517      3516      3519      3521      3517      3516      3519      3522
      3518      3516      3519      3520      3518      3516      3519      3521
      3518      3516      3519      3522      3519      3522      3525      3526
      3519      3522      3525      3527      3519      3522      3525      3528
      3520      3519      3522      3523      3520      3519      3522      3524
      3520      3519      3522      3525      3521      3519      3522      3523
      3521      3519      3522      3524      3521      3519      3522      3525
      3522      3525      3528      3529      3522      3525      3528      3530
      3522      3525      3528      3531      3523      3522      3525      3526
      3523      3522      3525      3527      3523      3522      3525      3528
      3524      3522      3525      3526      3524      3522      3525      3527
      3524      3522      3525      3528      3525      3528      3531      3532
      3525      3528      3531      3533      3525      3528      3531      3534
      3526      3525      3528      3529      3526      3525      3528      3530
      3526      3525      3528      3531      3527      3525      3528      3529
      3527      3525      3528      3530      3527      3525      3528      3531
      3528      3531      3534      3535      3528      3531      3534      3536
      3528      3531      3534      3537      3529      3528      3531      3532
      3529      3528      3531      3533      3529      3528      3531      3534
      3530      3528      3531      3532      3530      3528      3531      3533
      3530      3528      3531      3534      3531      3534      3537      3538
      3531      3534      3537      3539      3531      3534      3537      3540
      3532      3531      3534      3535      3532      3531      3534      3536
      3532      3531      3534      3537      3533      3531      3534      3535
      3533      3531      3534      3536      3533      3531      3534      3537
      3534      3537      3540      3541      3534      3537      3540      3542
      3534      3537      3540      3543      3535      3534      3537      3538
      3535      3534      3537      3539      3535      3534      3537      3540
      3536      3534      3537      3538      3536      3534      3537      3539
      3536      3534      3537      3540      3538      3537      3540      3541
      3538      3537      3540      3542      3538      3537      3540      3543
      3539      3537      3540      3541      3539      3537      3540      3542
      3539      3537      3540      3543      3544      3548      3551      3552
      3544      3548      3551      3553      3544      3548      3551      3558
      3545      3544      3548      3549      3545      3544      3548      3550
      3545      3544      3548      3551      3546      3544      3548      3549
      3546      3544      3548      3550      3546      3544      3548      3551
      3547      3544      3548      3549      3547      3544      3548      3550
      3547      3544      3548      3551      3548      3551      3558      3554
      3549      3548      3551      3552      3549      3548      3551      3553
      3549      3548      3551      3558      3550      3548      3551      3552
      3550      3548      3551      3553      3550      3548      3551      3558
      3551      3558      3554      3555      3551      3558      3554      3556
      3551      3558      3554      3557      3552      3551      3558      3554
      3553      3551      3558      3554      3554      3557      3559      3560
      3554      3557      3559      3561      3554      3557      3559      3562
      3555      3554      3557      3559      3556      3554      3557      3559
      3557      3559      3562      3563      3557      3559      3562      3564
      3557      3559      3562      3570      3558      3554      3557      3559
      3559      3562      3564      3565      3559      3562      3570      3571
      3559      3562      3570      3572      3559      3562      3570      3573
      3560      3559      3562      3563      3560      3559      3562      3564
      3560      3559      3562      3570      3561      3559      3562      3563
      3561      3559      3562      3564      3561      3559      3562      3570
      3562      3564      3565      3566      3562      3564      3565      3567
      3562      3570      3573      3574      3563      3562      3564      3565
      3563      3562      3570      3571      3563      3562      3570      3572
      3563      3562      3570      3573      3564      3562      3570      3571
      3564      3562      3570      3572      3564      3562      3570      3573
      3564      3565      3567      3568      3564      3565      3567      3569
      3564      3565      3567      3579      3565      3564      3562      3570
      3565      3567      3579      3580      3565      3567      3579      3581
      3565      3567      3579      3582      3566      3565      3567      3568
      3566      3565      3567      3569      3566      3565      3567      3579
      3567      3579      3582      3583      3567      3579      3582      3584
      3567      3579      3582      3585      3568      3567      3579      3580
      3568      3567      3579      3581      3568      3567      3579      3582
      3569      3567      3579      3580      3569      3567      3579      3581
      3569      3567      3579      3582      3570      3573      3574      3575
      3570      3573      3574      3576      3571      3570      3573      3574
      3572      3570      3573      3574      3573      3574      3576      3577
      3573      3574      3576      3578      3573      3574      3576      3623
      3574      3576      3623      3624      3574      3576      3623      3625
      3574      3576      3623      3626      3575      3574      3576      3577
      3575      3574      3576      3578      3575      3574      3576      3623
      3576      3623      3626      3627      3576      3623      3626      3628
      3576      3623      3626      3629      3577      3576      3623      3624
      3577      3576      3623      3625      3577      3576      3623      3626
      3578      3576      3623      3624      3578      3576      3623      3625
      3578      3576      3623      3626      3579      3582      3585      3586
      3579      3582      3585      3587      3579      3582      3585      3588
      3580      3579      3582      3583      3580      3579      3582      3584
      3580      3579      3582      3585      3581      3579      3582      3583
      3581      3579      3582      3584      3581      3579      3582      3585
      3582      3585      3588      3589      3582      3585      3588      3590
      3582      3585      3588      3591      3583      3582      3585      3586
      3583      3582      3585      3587      3583      3582      3585      3588
      3584      3582      3585      3586      3584      3582      3585      3587
      3584      3582      3585      3588      3585      3588      3591      3592
      3585      3588      3591      3593      3585      3588      3591      3594
      3586      3585      3588      3589      3586      3585      3588      3590
      3586      3585      3588      3591      3587      3585      3588      3589
      3587      3585      3588      3590      3587      3585      3588      3591
      3588      3591      3594      3595      3588      3591      3594      3596
      3588      3591      3594      3597      3589      3588      3591      3592
      3589      3588      3591      3593      3589      3588      3591      3594
      3590      3588      3591      3592      3590      3588      3591      3593
      3590      3588      3591      3594      3591      3594      3597      3598
      3591      3594      3597      3599      3591      3594      3597      3602
      3592      3591      3594      3595      3592      3591      3594      3596
      3592      3591      3594      3597      3593      3591      3594      3595
      3593      3591      3594      3596      3593      3591      3594      3597
      3594      3597      3599      3600      3594      3597      3599      3601
      3594      3597      3599      3602      3594      3597      3602      3599
      3594      3597      3602      3603      3594      3597      3602      3604
      3595      3594      3597      3598      3595      3594      3597      3599
      3595      3594      3597      3602      3596      3594      3597      3598
      3596      3594      3597      3599      3596      3594      3597      3602
      3597      3599      3602      3603      3597      3599      3602      3604
      3597      3602      3599      3600      3597      3602      3599      3601
      3597      3602      3604      3605      3597      3602      3604      3606
      3597      3602      3604      3607      3598      3597      3599      3600
      3598      3597      3599      3601      3598      3597      3599      3602
      3598      3597      3602      3599      3598      3597      3602      3603
      3598      3597      3602      3604      3599      3597      3602      3603
      3599      3597      3602      3604      3599      3602      3604      3605
      3599      3602      3604      3606      3599      3602      3604      3607
      3600      3599      3597      3602      3600      3599      3602      3603
      3600      3599      3602      3604      3601      3599      3597      3602
      3601      3599      3602      3603      3601      3599      3602      3604
      3602      3604      3607      3608      3602      3604      3607      3609
      3602      3604      3607      3610      3603      3602      3604      3605
      3603      3602      3604      3606      3603      3602      3604      3607
      3604      3607      3610      3611      3604      3607      3610      3612
      3604      3607      3610      3613      3605      3604      3607      3608
      3605      3604      3607      3609      3605      3604      3607      3610
      3606      3604      3607      3608      3606      3604      3607      3609
      3606      3604      3607      3610      3607      3610      3613      3614
      3607      3610      3613      3615      3607      3610      3613      3616
      3608      3607      3610      3611      3608      3607      3610      3612
      3608      3607      3610      3613      3609      3607      3610      3611
      3609      3607      3610      3612      3609      3607      3610      3613
      3610      3613      3616      3617      3610      3613      3616      3618
      3610      3613      3616      3619      3611      3610      3613      3614
      3611      3610      3613      3615      3611      3610      3613      3616
      3612      3610      3613      3614      3612      3610      3613      3615
      3612      3610      3613      3616      3613      3616      3619      3620
      3613      3616      3619      3621      3613      3616      3619      3622
      3614      3613      3616      3617      3614      3613      3616      3618
      3614      3613      3616      3619      3615      3613      3616      3617
      3615      3613      3616      3618      3615      3613      3616      3619
      3617      3616      3619      3620      3617      3616      3619      3621
      3617      3616      3619      3622      3618      3616      3619      3620
      3618      3616      3619      3621      3618      3616      3619      3622
      3623      3626      3629      3630      3623      3626      3629      3631
      3623      3626      3629      3632      3624      3623      3626      3627
      3624      3623      3626      3628      3624      3623      3626      3629
      3625      3623      3626      3627      3625      3623      3626      3628
      3625      3623      3626      3629      3626      3629      3632      3633
      3626      3629      3632      3634      3626      3629      3632      3635
      3627      3626      3629      3630      3627      3626      3629      3631
      3627      3626      3629      3632      3628      3626      3629      3630
      3628      3626      3629      3631      3628      3626      3629      3632
      3629      3632      3635      3636      3629      3632      3635      3637
      3629      3632      3635      3638      3630      3629      3632      3633
      3630      3629      3632      3634      3630      3629      3632      3635
      3631      3629      3632      3633      3631      3629      3632      3634
      3631      3629      3632      3635      3632      3635      3638      3639
      3632      3635      3638      3640      3632      3635      3638      3641
      3633      3632      3635      3636      3633      3632      3635      3637
      3633      3632      3635      3638      3634      3632      3635      3636
      3634      3632      3635      3637      3634      3632      3635      3638
      3635      3638      3641      3642      3635      3638      3641      3643
      3635      3638      3641      3644      3636      3635      3638      3639
      3636      3635      3638      3640      3636      3635      3638      3641
      3637      3635      3638      3639      3637      3635      3638      3640
      3637      3635      3638      3641      3638      3641      3644      3645
      3638      3641      3644      3646      3638      3641      3644      3647
      3639      3638      3641      3642      3639      3638      3641      3643
      3639      3638      3641      3644      3640      3638      3641      3642
      3640      3638      3641      3643      3640      3638      3641      3644
      3641      3644      3647      3648      3641      3644      3647      3649
      3641      3644      3647      3650      3642      3641      3644      3645
      3642      3641      3644      3646      3642      3641      3644      3647
      3643      3641      3644      3645      3643      3641      3644      3646
      3643      3641      3644      3647      3644      3647      3650      3651
      3644      3647      3650      3652      3644      3647      3650      3653
      3645      3644      3647      3648      3645      3644      3647      3649
      3645      3644      3647      3650      3646      3644      3647      3648
      3646      3644      3647      3649      3646      3644      3647      3650
      3647      3650      3653      3654      3647      3650      3653      3655
      3647      3650      3653      3656      3648      3647      3650      3651
      3648      3647      3650      3652      3648      3647      3650      3653
      3649      3647      3650      3651      3649      3647      3650      3652
      3649      3647      3650      3653      3650      3653      3656      3657
      3650      3653      3656      3658      3650      3653      3656      3659
      3651      3650      3653      3654      3651      3650      3653      3655
      3651      3650      3653      3656      3652      3650      3653      3654
      3652      3650      3653      3655      3652      3650      3653      3656
      3653      3656      3659      3660      3653      3656      3659      3661
      3653      3656      3659      3662      3654      3653      3656      3657
      3654      3653      3656      3658      3654      3653      3656      3659
      3655      3653      3656      3657      3655      3653      3656      3658
      3655      3653      3656      3659      3656      3659      3662      3663
      3656      3659      3662      3664      3656      3659      3662      3665
      3657      3656      3659      3660      3657      3656      3659      3661
      3657      3656      3659      3662      3658      3656      3659      3660
      3658      3656      3659      3661      3658      3656      3659      3662
      3660      3659      3662      3663      3660      3659      3662      3664
      3660      3659      3662      3665      3661      3659      3662      3663
      3661      3659      3662      3664      3661      3659      3662      3665
      3666      3671      3673      3674      3666      3671      3675      3676
      3666      3671      3675      3677      3666      3671      3675      3682
      3667      3666      3669      3670      3667      3666      3671      3672
      3667      3666      3671      3673      3667      3666      3671      3675
      3668      3666      3669      3670      3668      3666      3671      3672
      3668      3666      3671      3673      3668      3666      3671      3675
      3669      3666      3671      3672      3669      3666      3671      3673
      3669      3666      3671      3675      3670      3669      3666      3671
      3671      3675      3682      3678      3672      3671      3673      3674
      3672      3671      3675      3676      3672      3671      3675      3677
      3672      3671      3675      3682      3673      3671      3675      3676
      3673      3671      3675      3677      3673      3671      3675      3682
      3674      3673      3671      3675      3675      3682      3678      3679
      3675      3682      3678      3680      3675      3682      3678      3681
      3676      3675      3682      3678      3677      3675      3682      3678
      3678      3681      3683      3684      3678      3681      3683      3685
      3678      3681      3683      3686      3679      3678      3681      3683
      3680      3678      3681      3683      3681      3683      3686      3687
      3681      3683      3686      3688      3681      3683      3686      3694
      3682      3678      3681      3683      3683      3686      3688      3689
      3683      3686      3694      3695      3683      3686      3694      3696
      3683      3686      3694      3697      3684      3683      3686      3687
      3684      3683      3686      3688      3684      3683      3686      3694
      3685      3683      3686      3687      3685      3683      3686      3688
      3685      3683      3686      3694      3686      3688      3689      3690
      3686      3688      3689      3691      3686      3694      3697      3698
      3687      3686      3688      3689      3687      3686      3694      3695
      3687      3686      3694      3696      3687      3686      3694      3697
      3688      3686      3694      3695      3688      3686      3694      3696
      3688      3686      3694      3697      3688      3689      3691      3692
      3688      3689      3691      3693      3688      3689      3691      3703
      3689      3688      3686      3694      3689      3691      3703      3704
      3689      3691      3703      3705      3689      3691      3703      3706
      3690      3689      3691      3692      3690      3689      3691      3693
      3690      3689      3691      3703      3691      3703      3706      3707
      3691      3703      3706      3708      3691      3703      3706      3709
      3692      3691      3703      3704      3692      3691      3703      3705
      3692      3691      3703      3706      3693      3691      3703      3704
      3693      3691      3703      3705      3693      3691      3703      3706
      3694      3697      3698      3699      3694      3697      3698      3700
      3695      3694      3697      3698      3696      3694      3697      3698
      3697      3698      3700      3701      3697      3698      3700      3702
      3697      3698      3700      3744      3698      3700      3744      3745
      3698      3700      3744      3746      3698      3700      3744      3747
      3699      3698      3700      3701      3699      3698      3700      3702
      3699      3698      3700      3744      3700      3744      3747      3748
      3700      3744      3747      3749      3700      3744      3747      3750
      3701      3700      3744      3745      3701      3700      3744      3746
      3701      3700      3744      3747      3702      3700      3744      3745
      3702      3700      3744      3746      3702      3700      3744      3747
      3703      3706      3709      3710      3703      3706      3709      3711
      3703      3706      3709      3712      3704      3703      3706      3707
      3704      3703      3706      3708      3704      3703      3706      3709
      3705      3703      3706      3707      3705      3703      3706      3708
      3705      3703      3706      3709      3706      3709      3712      3713
      3706      3709      3712      3714      3706      3709      3712      3715
      3707      3706      3709      3710      3707      3706      3709      3711
      3707      3706      3709      3712      3708      3706      3709      3710
      3708      3706      3709      3711      3708      3706      3709      3712
      3709      3712      3715      3716      3709      3712      3715      3717
      3709      3712      3715      3718      3710      3709      3712      3713
      3710      3709      3712      3714      3710      3709      3712      3715
      3711      3709      3712      3713      3711      3709      3712      3714
      3711      3709      3712      3715      3712      3715      3718      3719
      3712      3715      3718      3720      3712      3715      3718      3721
      3713      3712      3715      3716      3713      3712      3715      3717
      3713      3712      3715      3718      3714      3712      3715      3716
      3714      3712      3715      3717      3714      3712      3715      3718
      3715      3718      3721      3722      3715      3718      3721      3723
      3716      3715      3718      3719      3716      3715      3718      3720
      3716      3715      3718      3721      3717      3715      3718      3719
      3717      3715      3718      3720      3717      3715      3718      3721
      3718      3721      3723      3724      3718      3721      3723      3725
      3719      3718      3721      3722      3719      3718      3721      3723
      3720      3718      3721      3722      3720      3718      3721      3723
      3721      3723      3725      3726      3721      3723      3725      3727
      3721      3723      3725      3728      3722      3721      3723      3724
      3722      3721      3723      3725      3723      3725      3728      3729
      3723      3725      3728      3730      3723      3725      3728      3731
      3724      3723      3725      3726      3724      3723      3725      3727
      3724      3723      3725      3728      3725      3728      3731      3732
      3725      3728      3731      3733      3725      3728      3731      3734
      3726      3725      3728      3729      3726      3725      3728      3730
      3726      3725      3728      3731      3727      3725      3728      3729
      3727      3725      3728      3730      3727      3725      3728      3731
      3728      3731      3734      3735      3728      3731      3734      3736
      3728      3731      3734      3737      3729      3728      3731      3732
      3729      3728      3731      3733      3729      3728      3731      3734
      3730      3728      3731      3732      3730      3728      3731      3733
      3730      3728      3731      3734      3731      3734      3737      3738
      3731      3734      3737      3739      3731      3734      3737      3740
      3732      3731      3734      3735      3732      3731      3734      3736
      3732      3731      3734      3737      3733      3731      3734      3735
      3733      3731      3734      3736      3733      3731      3734      3737
      3734      3737      3740      3741      3734      3737      3740      3742
      3734      3737      3740      3743      3735      3734      3737      3738
      3735      3734      3737      3739      3735      3734      3737      3740
      3736      3734      3737      3738      3736      3734      3737      3739
      3736      3734      3737      3740      3738      3737      3740      3741
      3738      3737      3740      3742      3738      3737      3740      3743
      3739      3737      3740      3741      3739      3737      3740      3742
      3739      3737      3740      3743      3744      3747      3750      3751
      3744      3747      3750      3752      3744      3747      3750      3753
      3745      3744      3747      3748      3745      3744      3747      3749
      3745      3744      3747      3750      3746      3744      3747      3748
      3746      3744      3747      3749      3746      3744      3747      3750
      3747      3750      3753      3754      3747      3750      3753      3755
      3747      3750      3753      3756      3748      3747      3750      3751
      3748      3747      3750      3752      3748      3747      3750      3753
      3749      3747      3750      3751      3749      3747      3750      3752
      3749      3747      3750      3753      3750      3753      3756      3757
      3750      3753      3756      3758      3750      3753      3756      3759
      3751      3750      3753      3754      3751      3750      3753      3755
      3751      3750      3753      3756      3752      3750      3753      3754
      3752      3750      3753      3755      3752      3750      3753      3756
      3753      3756      3759      3760      3753      3756      3759      3761
      3753      3756      3759      3762      3754      3753      3756      3757
      3754      3753      3756      3758      3754      3753      3756      3759
      3755      3753      3756      3757      3755      3753      3756      3758
      3755      3753      3756      3759      3756      3759      3762      3763
      3756      3759      3762      3764      3756      3759      3762      3765
      3757      3756      3759      3760      3757      3756      3759      3761
      3757      3756      3759      3762      3758      3756      3759      3760
      3758      3756      3759      3761      3758      3756      3759      3762
      3759      3762      3765      3766      3759      3762      3765      3767
      3759      3762      3765      3768      3760      3759      3762      3763
      3760      3759      3762      3764      3760      3759      3762      3765
      3761      3759      3762      3763      3761      3759      3762      3764
      3761      3759      3762      3765      3762      3765      3768      3769
      3762      3765      3768      3770      3762      3765      3768      3771
      3763      3762      3765      3766      3763      3762      3765      3767
      3763      3762      3765      3768      3764      3762      3765      3766
      3764      3762      3765      3767      3764      3762      3765      3768
      3765      3768      3771      3772      3765      3768      3771      3773
      3765      3768      3771      3774      3766      3765      3768      3769
      3766      3765      3768      3770      3766      3765      3768      3771
      3767      3765      3768      3769      3767      3765      3768      3770
      3767      3765      3768      3771      3768      3771      3774      3775
      3768      3771      3774      3776      3768      3771      3774      3777
      3769      3768      3771      3772      3769      3768      3771      3773
      3769      3768      3771      3774      3770      3768      3771      3772
      3770      3768      3771      3773      3770      3768      3771      3774
      3771      3774      3777      3778      3771      3774      3777      3779
      3771      3774      3777      3780      3772      3771      3774      3775
      3772      3771      3774      3776      3772      3771      3774      3777
      3773      3771      3774      3775      3773      3771      3774      3776
      3773      3771      3774      3777      3774      3777      3780      3781
      3774      3777      3780      3782      3774      3777      3780      3783
      3775      3774      3777      3778      3775      3774      3777      3779
      3775      3774      3777      3780      3776      3774      3777      3778
      3776      3774      3777      3779      3776      3774      3777      3780
      3777      3780      3783      3784      3777      3780      3783      3785
      3777      3780      3783      3786      3778      3777      3780      3781
      3778      3777      3780      3782      3778      3777      3780      3783
      3779      3777      3780      3781      3779      3777      3780      3782
      3779      3777      3780      3783      3781      3780      3783      3784
      3781      3780      3783      3785      3781      3780      3783      3786
      3782      3780      3783      3784      3782      3780      3783      3785
      3782      3780      3783      3786      3787      3791      3794      3795
      3787      3791      3794      3796      3787      3791      3794      3801
      3788      3787      3791      3792      3788      3787      3791      3793
      3788      3787      3791      3794      3789      3787      3791      3792
      3789      3787      3791      3793      3789      3787      3791      3794
      3790      3787      3791      3792      3790      3787      3791      3793
      3790      3787      3791      3794      3791      3794      3801      3797
      3792      3791      3794      3795      3792      3791      3794      3796
      3792      3791      3794      3801      3793      3791      3794      3795
      3793      3791      3794      3796      3793      3791      3794      3801
      3794      3801      3797      3798      3794      3801      3797      3799
      3794      3801      3797      3800      3795      3794      3801      3797
      3796      3794      3801      3797      3797      3800      3802      3803
      3797      3800      3802      3804      3797      3800      3802      3805
      3798      3797      3800      3802      3799      3797      3800      3802
      3800      3802      3805      3806      3800      3802      3805      3807
      3800      3802      3805      3813      3801      3797      3800      3802
      3802      3805      3807      3808      3802      3805      3813      3814
      3802      3805      3813      3815      3802      3805      3813      3816
      3803      3802      3805      3806      3803      3802      3805      3807
      3803      3802      3805      3813      3804      3802      3805      3806
      3804      3802      3805      3807      3804      3802      3805      3813
      3805      3807      3808      3809      3805      3807      3808      3810
      3805      3813      3816      3817      3806      3805      3807      3808
      3806      3805      3813      3814      3806      3805      3813      3815
      3806      3805      3813      3816      3807      3805      3813      3814
      3807      3805      3813      3815      3807      3805      3813      3816
      3807      3808      3810      3811      3807      3808      3810      3812
      3807      3808      3810      3822      3808      3807      3805      3813
      3808      3810      3822      3823      3808      3810      3822      3824
      3808      3810      3822      3825      3809      3808      3810      3811
      3809      3808      3810      3812      3809      3808      3810      3822
      3810      3822      3825      3826      3810      3822      3825      3827
      3810      3822      3825      3828      3811      3810      3822      3823
      3811      3810      3822      3824      3811      3810      3822      3825
      3812      3810      3822      3823      3812      3810      3822      3824
      3812      3810      3822      3825      3813      3816      3817      3818
      3813      3816      3817      3819      3814      3813      3816      3817
      3815      3813      3816      3817      3816      3817      3819      3820
      3816      3817      3819      3821      3816      3817      3819      3863
      3817      3819      3863      3864      3817      3819      3863      3865
      3817      3819      3863      3866      3818      3817      3819      3820
      3818      3817      3819      3821      3818      3817      3819      3863
      3819      3863      3866      3867      3819      3863      3866      3868
      3819      3863      3866      3869      3820      3819      3863      3864
      3820      3819      3863      3865      3820      3819      3863      3866
      3821      3819      3863      3864      3821      3819      3863      3865
      3821      3819      3863      3866      3822      3825      3828      3829
      3822      3825      3828      3830      3822      3825      3828      3831
      3823      3822      3825      3826      3823      3822      3825      3827
      3823      3822      3825      3828      3824      3822      3825      3826
      3824      3822      3825      3827      3824      3822      3825      3828
      3825      3828      3831      3832      3825      3828      3831      3833
      3825      3828      3831      3834      3826      3825      3828      3829
      3826      3825      3828      3830      3826      3825      3828      3831
      3827      3825      3828      3829      3827      3825      3828      3830
      3827      3825      3828      3831      3828      3831      3834      3835
      3828      3831      3834      3836      3828      3831      3834      3837
      3829      3828      3831      3832      3829      3828      3831      3833
      3829      3828      3831      3834      3830      3828      3831      3832
      3830      3828      3831      3833      3830      3828      3831      3834
      3831      3834      3837      3838      3831      3834      3837      3839
      3831      3834      3837      3840      3832      3831      3834      3835
      3832      3831      3834      3836      3832      3831      3834      3837
      3833      3831      3834      3835      3833      3831      3834      3836
      3833      3831      3834      3837      3834      3837      3840      3841
      3834      3837      3840      3842      3835      3834      3837      3838
      3835      3834      3837      3839      3835      3834      3837      3840
      3836      3834      3837      3838      3836      3834      3837      3839
      3836      3834      3837      3840      3837      3840      3842      3843
      3837      3840      3842      3844      3838      3837      3840      3841
      3838      3837      3840      3842      3839      3837      3840      3841
      3839      3837      3840      3842      3840      3842      3844      3845
      3840      3842      3844      3846      3840      3842      3844      3847
      3841      3840      3842      3843      3841      3840      3842      3844
      3842      3844      3847      3848      3842      3844      3847      3849
      3842      3844      3847      3850      3843      3842      3844      3845
      3843      3842      3844      3846      3843      3842      3844      3847
      3844      3847      3850      3851      3844      3847      3850      3852
      3844      3847      3850      3853      3845      3844      3847      3848
      3845      3844      3847      3849      3845      3844      3847      3850
      3846      3844      3847      3848      3846      3844      3847      3849
      3846      3844      3847      3850      3847      3850      3853      3854
      3847      3850      3853      3855      3847      3850      3853      3856
      3848      3847      3850      3851      3848      3847      3850      3852
      3848      3847      3850      3853      3849      3847      3850      3851
      3849      3847      3850      3852      3849      3847      3850      3853
      3850      3853      3856      3857      3850      3853      3856      3858
      3850      3853      3856      3859      3851      3850      3853      3854
      3851      3850      3853      3855      3851      3850      3853      3856
      3852      3850      3853      3854      3852      3850      3853      3855
      3852      3850      3853      3856      3853      3856      3859      3860
      3853      3856      3859      3861      3853      3856      3859      3862
      3854      3853      3856      3857      3854      3853      3856      3858
      3854      3853      3856      3859      3855      3853      3856      3857
      3855      3853      3856      3858      3855      3853      3856      3859
      3857      3856      3859      3860      3857      3856      3859      3861
      3857      3856      3859      3862      3858      3856      3859      3860
      3858      3856      3859      3861      3858      3856      3859      3862
      3863      3866      3869      3870      3863      3866      3869      3871
      3863      3866      3869      3872      3864      3863      3866      3867
      3864      3863      3866      3868      3864      3863      3866      3869
      3865      3863      3866      3867      3865      3863      3866      3868
      3865      3863      3866      3869      3866      3869      3872      3873
      3866      3869      3872      3874      3866      3869      3872      3875
      3867      3866      3869      3870      3867      3866      3869      3871
      3867      3866      3869      3872      3868      3866      3869      3870
      3868      3866      3869      3871      3868      3866      3869      3872
      3869      3872      3875      3876      3869      3872      3875      3877
      3869      3872      3875      3878      3870      3869      3872      3873
      3870      3869      3872      3874      3870      3869      3872      3875
      3871      3869      3872      3873      3871      3869      3872      3874
      3871      3869      3872      3875      3872      3875      3878      3879
      3872      3875      3878      3880      3872      3875      3878      3881
      3873      3872      3875      3876      3873      3872      3875      3877
      3873      3872      3875      3878      3874      3872      3875      3876
      3874      3872      3875      3877      3874      3872      3875      3878
      3875      3878      3881      3882      3875      3878      3881      3883
      3876      3875      3878      3879      3876      3875      3878      3880
      3876      3875      3878      3881      3877      3875      3878      3879
      3877      3875      3878      3880      3877      3875      3878      3881
      3878      3881      3883      3884      3878      3881      3883      3885
      3879      3878      3881      3882      3879      3878      3881      3883
      3880      3878      3881      3882      3880      3878      3881      3883
      3881      3883      3885      3886      3881      3883      3885      3887
      3881      3883      3885      3888      3882      3881      3883      3884
      3882      3881      3883      3885      3883      3885      3888      3889
      3883      3885      3888      3890      3883      3885      3888      3891
      3884      3883      3885      3886      3884      3883      3885      3887
      3884      3883      3885      3888      3885      3888      3891      3892
      3885      3888      3891      3893      3885      3888      3891      3894
      3886      3885      3888      3889      3886      3885      3888      3890
      3886      3885      3888      3891      3887      3885      3888      3889
      3887      3885      3888      3890      3887      3885      3888      3891
      3888      3891      3894      3895      3888      3891      3894      3896
      3888      3891      3894      3897      3889      3888      3891      3892
      3889      3888      3891      3893      3889      3888      3891      3894
      3890      3888      3891      3892      3890      3888      3891      3893
      3890      3888      3891      3894      3891      3894      3897      3898
      3891      3894      3897      3899      3891      3894      3897      3900
      3892      3891      3894      3895      3892      3891      3894      3896
      3892      3891      3894      3897      3893      3891      3894      3895
      3893      3891      3894      3896      3893      3891      3894      3897
      3894      3897      3900      3901      3894      3897      3900      3902
      3894      3897      3900      3903      3895      3894      3897      3898
      3895      3894      3897      3899      3895      3894      3897      3900
      3896      3894      3897      3898      3896      3894      3897      3899
      3896      3894      3897      3900      3897      3900      3903      3904
      3897      3900      3903      3905      3897      3900      3903      3906
      3898      3897      3900      3901      3898      3897      3900      3902
      3898      3897      3900      3903      3899      3897      3900      3901
      3899      3897      3900      3902      3899      3897      3900      3903
      3900      3903      3906      3907      3900      3903      3906      3908
      3900      3903      3906      3909      3901      3900      3903      3904
      3901      3900      3903      3905      3901      3900      3903      3906
      3902      3900      3903      3904      3902      3900      3903      3905
      3902      3900      3903      3906      3904      3903      3906      3907
      3904      3903      3906      3908      3904      3903      3906      3909
      3905      3903      3906      3907      3905      3903      3906      3908
      3905      3903      3906      3909      3910      3914      3917      3918
      3910      3914      3917      3919      3910      3914      3917      3924
      3911      3910      3914      3915      3911      3910      3914      3916
      3911      3910      3914      3917      3912      3910      3914      3915
      3912      3910      3914      3916      3912      3910      3914      3917
      3913      3910      3914      3915      3913      3910      3914      3916
      3913      3910      3914      3917      3914      3917      3924      3920
      3915      3914      3917      3918      3915      3914      3917      3919
      3915      3914      3917      3924      3916      3914      3917      3918
      3916      3914      3917      3919      3916      3914      3917      3924
      3917      3924      3920      3921      3917      3924      3920      3922
      3917      3924      3920      3923      3918      3917      3924      3920
      3919      3917      3924      3920      3920      3923      3925      3926
      3920      3923      3925      3927      3920      3923      3925      3928
      3921      3920      3923      3925      3922      3920      3923      3925
      3923      3925      3928      3929      3923      3925      3928      3930
      3923      3925      3928      3936      3924      3920      3923      3925
      3925      3928      3930      3931      3925      3928      3936      3937
      3925      3928      3936      3938      3925      3928      3936      3939
      3926      3925      3928      3929      3926      3925      3928      3930
      3926      3925      3928      3936      3927      3925      3928      3929
      3927      3925      3928      3930      3927      3925      3928      3936
      3928      3930      3931      3932      3928      3930      3931      3933
      3928      3936      3939      3940      3929      3928      3930      3931
      3929      3928      3936      3937      3929      3928      3936      3938
      3929      3928      3936      3939      3930      3928      3936      3937
      3930      3928      3936      3938      3930      3928      3936      3939
      3930      3931      3933      3934      3930      3931      3933      3935
      3930      3931      3933      3945      3931      3930      3928      3936
      3931      3933      3945      3946      3931      3933      3945      3947
      3931      3933      3945      3948      3932      3931      3933      3934
      3932      3931      3933      3935      3932      3931      3933      3945
      3933      3945      3948      3949      3933      3945      3948      3950
      3933      3945      3948      3951      3934      3933      3945      3946
      3934      3933      3945      3947      3934      3933      3945      3948
      3935      3933      3945      3946      3935      3933      3945      3947
      3935      3933      3945      3948      3936      3939      3940      3941
      3936      3939      3940      3942      3937      3936      3939      3940
      3938      3936      3939      3940      3939      3940      3942      3943
      3939      3940      3942      3944      3939      3940      3942      3986
      3940      3942      3986      3987      3940      3942      3986      3988
      3940      3942      3986      3989      3941      3940      3942      3943
      3941      3940      3942      3944      3941      3940      3942      3986
      3942      3986      3989      3990      3942      3986      3989      3991
      3942      3986      3989      3992      3943      3942      3986      3987
      3943      3942      3986      3988      3943      3942      3986      3989
      3944      3942      3986      3987      3944      3942      3986      3988
      3944      3942      3986      3989      3945      3948      3951      3952
      3945      3948      3951      3953      3945      3948      3951      3954
      3946      3945      3948      3949      3946      3945      3948      3950
      3946      3945      3948      3951      3947      3945      3948      3949
      3947      3945      3948      3950      3947      3945      3948      3951
      3948      3951      3954      3955      3948      3951      3954      3956
      3948      3951      3954      3957      3949      3948      3951      3952
      3949      3948      3951      3953      3949      3948      3951      3954
      3950      3948      3951      3952      3950      3948      3951      3953
      3950      3948      3951      3954      3951      3954      3957      3958
      3951      3954      3957      3959      3951      3954      3957      3960
      3952      3951      3954      3955      3952      3951      3954      3956
      3952      3951      3954      3957      3953      3951      3954      3955
      3953      3951      3954      3956      3953      3951      3954      3957
      3954      3957      3960      3961      3954      3957      3960      3962
      3954      3957      3960      3963      3955      3954      3957      3958
      3955      3954      3957      3959      3955      3954      3957      3960
      3956      3954      3957      3958      3956      3954      3957      3959
      3956      3954      3957      3960      3957      3960      3963      3964
      3957      3960      3963      3965      3958      3957      3960      3961
      3958      3957      3960      3962      3958      3957      3960      3963
      3959      3957      3960      3961      3959      3957      3960      3962
      3959      3957      3960      3963      3960      3963      3965      3966
      3960      3963      3965      3967      3961      3960      3963      3964
      3961      3960      3963      3965      3962      3960      3963      3964
      3962      3960      3963      3965      3963      3965      3967      3968
      3963      3965      3967      3969      3963      3965      3967      3970
      3964      3963      3965      3966      3964      3963      3965      3967
      3965      3967      3970      3971      3965      3967      3970      3972
      3965      3967      3970      3973      3966      3965      3967      3968
      3966      3965      3967      3969      3966      3965      3967      3970
      3967      3970      3973      3974      3967      3970      3973      3975
      3967      3970      3973      3976      3968      3967      3970      3971
      3968      3967      3970      3972      3968      3967      3970      3973
      3969      3967      3970      3971      3969      3967      3970      3972
      3969      3967      3970      3973      3970      3973      3976      3977
      3970      3973      3976      3978      3970      3973      3976      3979
      3971      3970      3973      3974      3971      3970      3973      3975
      3971      3970      3973      3976      3972      3970      3973      3974
      3972      3970      3973      3975      3972      3970      3973      3976
      3973      3976      3979      3980      3973      3976      3979      3981
      3973      3976      3979      3982      3974      3973      3976      3977
      3974      3973      3976      3978      3974      3973      3976      3979
      3975      3973      3976      3977      3975      3973      3976      3978
      3975      3973      3976      3979      3976      3979      3982      3983
      3976      3979      3982      3984      3976      3979      3982      3985
      3977      3976      3979      3980      3977      3976      3979      3981
      3977      3976      3979      3982      3978      3976      3979      3980
      3978      3976      3979      3981      3978      3976      3979      3982
      3980      3979      3982      3983      3980      3979      3982      3984
      3980      3979      3982      3985      3981      3979      3982      3983
      3981      3979      3982      3984      3981      3979      3982      3985
      3986      3989      3992      3993      3986      3989      3992      3994
      3986      3989      3992      3995      3987      3986      3989      3990
      3987      3986      3989      3991      3987      3986      3989      3992
      3988      3986      3989      3990      3988      3986      3989      3991
      3988      3986      3989      3992      3989      3992      3995      3996
      3989      3992      3995      3997      3989      3992      3995      3998
      3990      3989      3992      3993      3990      3989      3992      3994
      3990      3989      3992      3995      3991      3989      3992      3993
      3991      3989      3992      3994      3991      3989      3992      3995
      3992      3995      3998      3999      3992      3995      3998      4000
      3992      3995      3998      4001      3993      3992      3995      3996
      3993      3992      3995      3997      3993      3992      3995      3998
      3994      3992      3995      3996      3994      3992      3995      3997
      3994      3992      3995      3998      3995      3998      4001      4002
      3995      3998      4001      4003      3995      3998      4001      4004
      3996      3995      3998      3999      3996      3995      3998      4000
      3996      3995      3998      4001      3997      3995      3998      3999
      3997      3995      3998      4000      3997      3995      3998      4001
      3998      4001      4004      4005      3998      4001      4004      4006
      3999      3998      4001      4002      3999      3998      4001      4003
      3999      3998      4001      4004      4000      3998      4001      4002
      4000      3998      4001      4003      4000      3998      4001      4004
      4001      4004      4006      4007      4001      4004      4006      4008
      4002      4001      4004      4005      4002      4001      4004      4006
      4003      4001      4004      4005      4003      4001      4004      4006
      4004      4006      4008      4009      4004      4006      4008      4010
      4004      4006      4008      4011      4005      4004      4006      4007
      4005      4004      4006      4008      4006      4008      4011      4012
      4006      4008      4011      4013      4006      4008      4011      4014
      4007      4006      4008      4009      4007      4006      4008      4010
      4007      4006      4008      4011      4008      4011      4014      4015
      4008      4011      4014      4016      4008      4011      4014      4017
      4009      4008      4011      4012      4009      4008      4011      4013
      4009      4008      4011      4014      4010      4008      4011      4012
      4010      4008      4011      4013      4010      4008      4011      4014
      4011      4014      4017      4018      4011      4014      4017      4019
      4011      4014      4017      4020      4012      4011      4014      4015
      4012      4011      4014      4016      4012      4011      4014      4017
      4013      4011      4014      4015      4013      4011      4014      4016
      4013      4011      4014      4017      4014      4017      4020      4021
      4014      4017      4020      4022      4014      4017      4020      4023
      4015      4014      4017      4018      4015      4014      4017      4019
      4015      4014      4017      4020      4016      4014      4017      4018
      4016      4014      4017      4019      4016      4014      4017      4020
      4017      4020      4023      4024      4017      4020      4023      4025
      4017      4020      4023      4026      4018      4017      4020      4021
      4018      4017      4020      4022      4018      4017      4020      4023
      4019      4017      4020      4021      4019      4017      4020      4022
      4019      4017      4020      4023      4020      4023      4026      4027
      4020      4023      4026      4028      4020      4023      4026      4029
      4021      4020      4023      4024      4021      4020      4023      4025
      4021      4020      4023      4026      4022      4020      4023      4024
      4022      4020      4023      4025      4022      4020      4023      4026
      4023      4026      4029      4030      4023      4026      4029      4031
      4023      4026      4029      4032      4024      4023      4026      4027
      4024      4023      4026      4028      4024      4023      4026      4029
      4025      4023      4026      4027      4025      4023      4026      4028
      4025      4023      4026      4029      4027      4026      4029      4030
      4027      4026      4029      4031      4027      4026      4029      4032
      4028      4026      4029      4030      4028      4026      4029      4031
      4028      4026      4029      4032      4033      4038      4040      4041
      4033      4038      4042      4043      4033      4038      4042      4044
      4033      4038      4042      4049      4034      4033      4036      4037
      4034      4033      4038      4039      4034      4033      4038      4040
      4034      4033      4038      4042      4035      4033      4036      4037
      4035      4033      4038      4039      4035      4033      4038      4040
      4035      4033      4038      4042      4036      4033      4038      4039
      4036      4033      4038      4040      4036      4033      4038      4042
      4037      4036      4033      4038      4038      4042      4049      4045
      4039      4038      4040      4041      4039      4038      4042      4043
      4039      4038      4042      4044      4039      4038      4042      4049
      4040      4038      4042      4043      4040      4038      4042      4044
      4040      4038      4042      4049      4041      4040      4038      4042
      4042      4049      4045      4046      4042      4049      4045      4047
      4042      4049      4045      4048      4043      4042      4049      4045
      4044      4042      4049      4045      4045      4048      4050      4051
      4045      4048      4050      4052      4045      4048      4050      4053
      4046      4045      4048      4050      4047      4045      4048      4050
      4048      4050      4053      4054      4048      4050      4053      4055
      4048      4050      4053      4061      4049      4045      4048      4050
      4050      4053      4055      4056      4050      4053      4061      4062
      4050      4053      4061      4063      4050      4053      4061      4064
      4051      4050      4053      4054      4051      4050      4053      4055
      4051      4050      4053      4061      4052      4050      4053      4054
      4052      4050      4053      4055      4052      4050      4053      4061
      4053      4055      4056      4057      4053      4055      4056      4058
      4053      4061      4064      4065      4054      4053      4055      4056
      4054      4053      4061      4062      4054      4053      4061      4063
      4054      4053      4061      4064      4055      4053      4061      4062
      4055      4053      4061      4063      4055      4053      4061      4064
      4055      4056      4058      4059      4055      4056      4058      4060
      4055      4056      4058      4070      4056      4055      4053      4061
      4056      4058      4070      4071      4056      4058      4070      4072
      4056      4058      4070      4073      4057      4056      4058      4059
      4057      4056      4058      4060      4057      4056      4058      4070
      4058      4070      4073      4074      4058      4070      4073      4075
      4058      4070      4073      4076      4059      4058      4070      4071
      4059      4058      4070      4072      4059      4058      4070      4073
      4060      4058      4070      4071      4060      4058      4070      4072
      4060      4058      4070      4073      4061      4064      4065      4066
      4061      4064      4065      4067      4062      4061      4064      4065
      4063      4061      4064      4065      4064      4065      4067      4068
      4064      4065      4067      4069      4064      4065      4067      4114
      4065      4067      4114      4115      4065      4067      4114      4116
      4065      4067      4114      4117      4066      4065      4067      4068
      4066      4065      4067      4069      4066      4065      4067      4114
      4067      4114      4117      4118      4067      4114      4117      4119
      4067      4114      4117      4120      4068      4067      4114      4115
      4068      4067      4114      4116      4068      4067      4114      4117
      4069      4067      4114      4115      4069      4067      4114      4116
      4069      4067      4114      4117      4070      4073      4076      4077
      4070      4073      4076      4078      4070      4073      4076      4079
      4071      4070      4073      4074      4071      4070      4073      4075
      4071      4070      4073      4076      4072      4070      4073      4074
      4072      4070      4073      4075      4072      4070      4073      4076
      4073      4076      4079      4080      4073      4076      4079      4081
      4073      4076      4079      4082      4074      4073      4076      4077
      4074      4073      4076      4078      4074      4073      4076      4079
      4075      4073      4076      4077      4075      4073      4076      4078
      4075      4073      4076      4079      4076      4079      4082      4083
      4076      4079      4082      4084      4076      4079      4082      4085
      4077      4076      4079      4080      4077      4076      4079      4081
      4077      4076      4079      4082      4078      4076      4079      4080
      4078      4076      4079      4081      4078      4076      4079      4082
      4079      4082      4085      4086      4079      4082      4085      4087
      4079      4082      4085      4088      4080      4079      4082      4083
      4080      4079      4082      4084      4080      4079      4082      4085
      4081      4079      4082      4083      4081      4079      4082      4084
      4081      4079      4082      4085      4082      4085      4088      4089
      4082      4085      4088      4090      4082      4085      4088      4093
      4083      4082      4085      4086      4083      4082      4085      4087
      4083      4082      4085      4088      4084      4082      4085      4086
      4084      4082      4085      4087      4084      4082      4085      4088
      4085      4088      4090      4091      4085      4088      4090      4092
      4085      4088      4090      4093      4085      4088      4093      4090
      4085      4088      4093      4094      4085      4088      4093      4095
      4086      4085      4088      4089      4086      4085      4088      4090
      4086      4085      4088      4093      4087      4085      4088      4089
      4087      4085      4088      4090      4087      4085      4088      4093
      4088      4090      4093      4094      4088      4090      4093      4095
      4088      4093      4090      4091      4088      4093      4090      4092
      4088      4093      4095      4096      4088      4093      4095      4097
      4088      4093      4095      4098      4089      4088      4090      4091
      4089      4088      4090      4092      4089      4088      4090      4093
      4089      4088      4093      4090      4089      4088      4093      4094
      4089      4088      4093      4095      4090      4088      4093      4094
      4090      4088      4093      4095      4090      4093      4095      4096
      4090      4093      4095      4097      4090      4093      4095      4098
      4091      4090      4088      4093      4091      4090      4093      4094
      4091      4090      4093      4095      4092      4090      4088      4093
      4092      4090      4093      4094      4092      4090      4093      4095
      4093      4095      4098      4099      4093      4095      4098      4100
      4093      4095      4098      4101      4094      4093      4095      4096
      4094      4093      4095      4097      4094      4093      4095      4098
      4095      4098      4101      4102      4095      4098      4101      4103
      4095      4098      4101      4104      4096      4095      4098      4099
      4096      4095      4098      4100      4096      4095      4098      4101
      4097      4095      4098      4099      4097      4095      4098      4100
      4097      4095      4098      4101      4098      4101      4104      4105
      4098      4101      4104      4106      4098      4101      4104      4107
      4099      4098      4101      4102      4099      4098      4101      4103
      4099      4098      4101      4104      4100      4098      4101      4102
      4100      4098      4101      4103      4100      4098      4101      4104
      4101      4104      4107      4108      4101      4104      4107      4109
      4101      4104      4107      4110      4102      4101      4104      4105
      4102      4101      4104      4106      4102      4101      4104      4107
      4103      4101      4104      4105      4103      4101      4104      4106
      4103      4101      4104      4107      4104      4107      4110      4111
      4104      4107      4110      4112      4104      4107      4110      4113
      4105      4104      4107      4108      4105      4104      4107      4109
      4105      4104      4107      4110      4106      4104      4107      4108
      4106      4104      4107      4109      4106      4104      4107      4110
      4108      4107      4110      4111      4108      4107      4110      4112
      4108      4107      4110      4113      4109      4107      4110      4111
      4109      4107      4110      4112      4109      4107      4110      4113
      4114      4117      4120      4121      4114      4117      4120      4122
      4114      4117      4120      4123      4115      4114      4117      4118
      4115      4114      4117      4119      4115      4114      4117      4120
      4116      4114      4117      4118      4116      4114      4117      4119
      4116      4114      4117      4120      4117      4120      4123      4124
      4117      4120      4123      4125      4117      4120      4123      4126
      4118      4117      4120      4121      4118      4117      4120      4122
      4118      4117      4120      4123      4119      4117      4120      4121
      4119      4117      4120      4122      4119      4117      4120      4123
      4120      4123      4126      4127      4120      4123      4126      4128
      4120      4123      4126      4129      4121      4120      4123      4124
      4121      4120      4123      4125      4121      4120      4123      4126
      4122      4120      4123      4124      4122      4120      4123      4125
      4122      4120      4123      4126      4123      4126      4129      4130
      4123      4126      4129      4131      4123      4126      4129      4132
      4124      4123      4126      4127      4124      4123      4126      4128
      4124      4123      4126      4129      4125      4123      4126      4127
      4125      4123      4126      4128      4125      4123      4126      4129
      4126      4129      4132      4133      4126      4129      4132      4134
      4126      4129      4132      4135      4127      4126      4129      4130
      4127      4126      4129      4131      4127      4126      4129      4132
      4128      4126      4129      4130      4128      4126      4129      4131
      4128      4126      4129      4132      4129      4132      4135      4136
      4129      4132      4135      4137      4129      4132      4135      4138
      4130      4129      4132      4133      4130      4129      4132      4134
      4130      4129      4132      4135      4131      4129      4132      4133
      4131      4129      4132      4134      4131      4129      4132      4135
      4132      4135      4138      4139      4132      4135      4138      4140
      4132      4135      4138      4141      4133      4132      4135      4136
      4133      4132      4135      4137      4133      4132      4135      4138
      4134      4132      4135      4136      4134      4132      4135      4137
      4134      4132      4135      4138      4135      4138      4141      4142
      4135      4138      4141      4143      4135      4138      4141      4144
      4136      4135      4138      4139      4136      4135      4138      4140
      4136      4135      4138      4141      4137      4135      4138      4139
      4137      4135      4138      4140      4137      4135      4138      4141
      4138      4141      4144      4145      4138      4141      4144      4146
      4138      4141      4144      4147      4139      4138      4141      4142
      4139      4138      4141      4143      4139      4138      4141      4144
      4140      4138      4141      4142      4140      4138      4141      4143
      4140      4138      4141      4144      4141      4144      4147      4148
      4141      4144      4147      4149      4141      4144      4147      4150
      4142      4141      4144      4145      4142      4141      4144      4146
      4142      4141      4144      4147      4143      4141      4144      4145
      4143      4141      4144      4146      4143      4141      4144      4147
      4144      4147      4150      4151      4144      4147      4150      4152
      4144      4147      4150      4153      4145      4144      4147      4148
      4145      4144      4147      4149      4145      4144      4147      4150
      4146      4144      4147      4148      4146      4144      4147      4149
      4146      4144      4147      4150      4147      4150      4153      4154
      4147      4150      4153      4155      4147      4150      4153      4156
      4148      4147      4150      4151      4148      4147      4150      4152
      4148      4147      4150      4153      4149      4147      4150      4151
      4149      4147      4150      4152      4149      4147      4150      4153
      4151      4150      4153      4154      4151      4150      4153      4155
      4151      4150      4153      4156      4152      4150      4153      4154
      4152      4150      4153      4155      4152      4150      4153      4156
      4157      4161      4164      4165      4157      4161      4164      4166
      4157      4161      4164      4171      4158      4157      4161      4162
      4158      4157      4161      4163      4158      4157      4161      4164
      4159      4157      4161      4162      4159      4157      4161      4163
      4159      4157      4161      4164      4160      4157      4161      4162
      4160      4157      4161      4163      4160      4157      4161      4164
      4161      4164      4171      4167      4162      4161      4164      4165
      4162      4161      4164      4166      4162      4161      4164      4171
      4163      4161      4164      4165      4163      4161      4164      4166
      4163      4161      4164      4171      4164      4171      4167      4168
      4164      4171      4167      4169      4164      4171      4167      4170
      4165      4164      4171      4167      4166      4164      4171      4167
      4167      4170      4172      4173      4167      4170      4172      4174
      4167      4170      4172      4175      4168      4167      4170      4172
      4169      4167      4170      4172      4170      4172      4175      4176
      4170      4172      4175      4177      4170      4172      4175      4183
      4171      4167      4170      4172      4172      4175      4177      4178
      4172      4175      4183      4184      4172      4175      4183      4185
      4172      4175      4183      4186      4173      4172      4175      4176
      4173      4172      4175      4177      4173      4172      4175      4183
      4174      4172      4175      4176      4174      4172      4175      4177
      4174      4172      4175      4183      4175      4177      4178      4179
      4175      4177      4178      4180      4175      4183      4186      4187
      4176      4175      4177      4178      4176      4175      4183      4184
      4176      4175      4183      4185      4176      4175      4183      4186
      4177      4175      4183      4184      4177      4175      4183      4185
      4177      4175      4183      4186      4177      4178      4180      4181
      4177      4178      4180      4182      4177      4178      4180      4192
      4178      4177      4175      4183      4178      4180      4192      4193
      4178      4180      4192      4194      4178      4180      4192      4195
      4179      4178      4180      4181      4179      4178      4180      4182
      4179      4178      4180      4192      4180      4192      4195      4196
      4180      4192      4195      4197      4180      4192      4195      4198
      4181      4180      4192      4193      4181      4180      4192      4194
      4181      4180      4192      4195      4182      4180      4192      4193
      4182      4180      4192      4194      4182      4180      4192      4195
      4183      4186      4187      4188      4183      4186      4187      4189
      4184      4183      4186      4187      4185      4183      4186      4187
      4186      4187      4189      4190      4186      4187      4189      4191
      4186      4187      4189      4236      4187      4189      4236      4237
      4187      4189      4236      4238      4187      4189      4236      4239
      4188      4187      4189      4190      4188      4187      4189      4191
      4188      4187      4189      4236      4189      4236      4239      4240
      4189      4236      4239      4241      4189      4236      4239      4242
      4190      4189      4236      4237      4190      4189      4236      4238
      4190      4189      4236      4239      4191      4189      4236      4237
      4191      4189      4236      4238      4191      4189      4236      4239
      4192      4195      4198      4199      4192      4195      4198      4200
      4192      4195      4198      4201      4193      4192      4195      4196
      4193      4192      4195      4197      4193      4192      4195      4198
      4194      4192      4195      4196      4194      4192      4195      4197
      4194      4192      4195      4198      4195      4198      4201      4202
      4195      4198      4201      4203      4195      4198      4201      4204
      4196      4195      4198      4199      4196      4195      4198      4200
      4196      4195      4198      4201      4197      4195      4198      4199
      4197      4195      4198      4200      4197      4195      4198      4201
      4198      4201      4204      4205      4198      4201      4204      4206
      4198      4201      4204      4207      4199      4198      4201      4202
      4199      4198      4201      4203      4199      4198      4201      4204
      4200      4198      4201      4202      4200      4198      4201      4203
      4200      4198      4201      4204      4201      4204      4207      4208
      4201      4204      4207      4209      4201      4204      4207      4210
      4202      4201      4204      4205      4202      4201      4204      4206
      4202      4201      4204      4207      4203      4201      4204      4205
      4203      4201      4204      4206      4203      4201      4204      4207
      4204      4207      4210      4211      4204      4207      4210      4212
      4204      4207      4210      4215      4205      4204      4207      4208
      4205      4204      4207      4209      4205      4204      4207      4210
      4206      4204      4207      4208      4206      4204      4207      4209
      4206      4204      4207      4210      4207      4210      4212      4213
      4207      4210      4212      4214      4207      4210      4212      4215
      4207      4210      4215      4212      4207      4210      4215      4216
      4207      4210      4215      4217      4208      4207      4210      4211
      4208      4207      4210      4212      4208      4207      4210      4215
      4209      4207      4210      4211      4209      4207      4210      4212
      4209      4207      4210      4215      4210      4212      4215      4216
      4210      4212      4215      4217      4210      4215      4212      4213
      4210      4215      4212      4214      4210      4215      4217      4218
      4210      4215      4217      4219      4210      4215      4217      4220
      4211      4210      4212      4213      4211      4210      4212      4214
      4211      4210      4212      4215      4211      4210      4215      4212
      4211      4210      4215      4216      4211      4210      4215      4217
      4212      4210      4215      4216      4212      4210      4215      4217
      4212      4215      4217      4218      4212      4215      4217      4219
      4212      4215      4217      4220      4213      4212      4210      4215
      4213      4212      4215      4216      4213      4212      4215      4217
      4214      4212      4210      4215      4214      4212      4215      4216
      4214      4212      4215      4217      4215      4217      4220      4221
      4215      4217      4220      4222      4215      4217      4220      4223
      4216      4215      4217      4218      4216      4215      4217      4219
      4216      4215      4217      4220      4217      4220      4223      4224
      4217      4220      4223      4225      4217      4220      4223      4226
      4218      4217      4220      4221      4218      4217      4220      4222
      4218      4217      4220      4223      4219      4217      4220      4221
      4219      4217      4220      4222      4219      4217      4220      4223
      4220      4223      4226      4227      4220      4223      4226      4228
      4220      4223      4226      4229      4221      4220      4223      4224
      4221      4220      4223      4225      4221      4220      4223      4226
      4222      4220      4223      4224      4222      4220      4223      4225
      4222      4220      4223      4226      4223      4226      4229      4230
      4223      4226      4229      4231      4223      4226      4229      4232
      4224      4223      4226      4227      4224      4223      4226      4228
      4224      4223      4226      4229      4225      4223      4226      4227
      4225      4223      4226      4228      4225      4223      4226      4229
      4226      4229      4232      4233      4226      4229      4232      4234
      4226      4229      4232      4235      4227      4226      4229      4230
      4227      4226      4229      4231      4227      4226      4229      4232
      4228      4226      4229      4230      4228      4226      4229      4231
      4228      4226      4229      4232      4230      4229      4232      4233
      4230      4229      4232      4234      4230      4229      4232      4235
      4231      4229      4232      4233      4231      4229      4232      4234
      4231      4229      4232      4235      4236      4239      4242      4243
      4236      4239      4242      4244      4236      4239      4242      4245
      4237      4236      4239      4240      4237      4236      4239      4241
      4237      4236      4239      4242      4238      4236      4239      4240
      4238      4236      4239      4241      4238      4236      4239      4242
      4239      4242      4245      4246      4239      4242      4245      4247
      4239      4242      4245      4248      4240      4239      4242      4243
      4240      4239      4242      4244      4240      4239      4242      4245
      4241      4239      4242      4243      4241      4239      4242      4244
      4241      4239      4242      4245      4242      4245      4248      4249
      4242      4245      4248      4250      4242      4245      4248      4251
      4243      4242      4245      4246      4243      4242      4245      4247
      4243      4242      4245      4248      4244      4242      4245      4246
      4244      4242      4245      4247      4244      4242      4245      4248
      4245      4248      4251      4252      4245      4248      4251      4253
      4245      4248      4251      4254      4246      4245      4248      4249
      4246      4245      4248      4250      4246      4245      4248      4251
      4247      4245      4248      4249      4247      4245      4248      4250
      4247      4245      4248      4251      4248      4251      4254      4255
      4248      4251      4254      4256      4248      4251      4254      4257
      4249      4248      4251      4252      4249      4248      4251      4253
      4249      4248      4251      4254      4250      4248      4251      4252
      4250      4248      4251      4253      4250      4248      4251      4254
      4251      4254      4257      4258      4251      4254      4257      4259
      4251      4254      4257      4260      4252      4251      4254      4255
      4252      4251      4254      4256      4252      4251      4254      4257
      4253      4251      4254      4255      4253      4251      4254      4256
      4253      4251      4254      4257      4254      4257      4260      4261
      4254      4257      4260      4262      4254      4257      4260      4263
      4255      4254      4257      4258      4255      4254      4257      4259
      4255      4254      4257      4260      4256      4254      4257      4258
      4256      4254      4257      4259      4256      4254      4257      4260
      4257      4260      4263      4264      4257      4260      4263      4265
      4257      4260      4263      4266      4258      4257      4260      4261
      4258      4257      4260      4262      4258      4257      4260      4263
      4259      4257      4260      4261      4259      4257      4260      4262
      4259      4257      4260      4263      4260      4263      4266      4267
      4260      4263      4266      4268      4260      4263      4266      4269
      4261      4260      4263      4264      4261      4260      4263      4265
      4261      4260      4263      4266      4262      4260      4263      4264
      4262      4260      4263      4265      4262      4260      4263      4266
      4263      4266      4269      4270      4263      4266      4269      4271
      4263      4266      4269      4272      4264      4263      4266      4267
      4264      4263      4266      4268      4264      4263      4266      4269
      4265      4263      4266      4267      4265      4263      4266      4268
      4265      4263      4266      4269      4266      4269      4272      4273
      4266      4269      4272      4274      4266      4269      4272      4275
      4267      4266      4269      4270      4267      4266      4269      4271
      4267      4266      4269      4272      4268      4266      4269      4270
      4268      4266      4269      4271      4268      4266      4269      4272
      4269      4272      4275      4276      4269      4272      4275      4277
      4269      4272      4275      4278      4270      4269      4272      4273
      4270      4269      4272      4274      4270      4269      4272      4275
      4271      4269      4272      4273      4271      4269      4272      4274
      4271      4269      4272      4275      4273      4272      4275      4276
      4273      4272      4275      4277      4273      4272      4275      4278
      4274      4272      4275      4276      4274      4272      4275      4277
      4274      4272      4275      4278      4279      4283      4286      4287
      4279      4283      4286      4288      4279      4283      4286      4293
      4280      4279      4283      4284      4280      4279      4283      4285
      4280      4279      4283      4286      4281      4279      4283      4284
      4281      4279      4283      4285      4281      4279      4283      4286
      4282      4279      4283      4284      4282      4279      4283      4285
      4282      4279      4283      4286      4283      4286      4293      4289
      4284      4283      4286      4287      4284      4283      4286      4288
      4284      4283      4286      4293      4285      4283      4286      4287
      4285      4283      4286      4288      4285      4283      4286      4293
      4286      4293      4289      4290      4286      4293      4289      4291
      4286      4293      4289      4292      4287      4286      4293      4289
      4288      4286      4293      4289      4289      4292      4294      4295
      4289      4292      4294      4296      4289      4292      4294      4297
      4290      4289      4292      4294      4291      4289      4292      4294
      4292      4294      4297      4298      4292      4294      4297      4299
      4292      4294      4297      4305      4293      4289      4292      4294
      4294      4297      4299      4300      4294      4297      4305      4306
      4294      4297      4305      4307      4294      4297      4305      4308
      4295      4294      4297      4298      4295      4294      4297      4299
      4295      4294      4297      4305      4296      4294      4297      4298
      4296      4294      4297      4299      4296      4294      4297      4305
      4297      4299      4300      4301      4297      4299      4300      4302
      4297      4305      4308      4309      4298      4297      4299      4300
      4298      4297      4305      4306      4298      4297      4305      4307
      4298      4297      4305      4308      4299      4297      4305      4306
      4299      4297      4305      4307      4299      4297      4305      4308
      4299      4300      4302      4303      4299      4300      4302      4304
      4299      4300      4302      4314      4300      4299      4297      4305
      4300      4302      4314      4315      4300      4302      4314      4316
      4300      4302      4314      4317      4301      4300      4302      4303
      4301      4300      4302      4304      4301      4300      4302      4314
      4302      4314      4317      4318      4302      4314      4317      4319
      4302      4314      4317      4320      4303      4302      4314      4315
      4303      4302      4314      4316      4303      4302      4314      4317
      4304      4302      4314      4315      4304      4302      4314      4316
      4304      4302      4314      4317      4305      4308      4309      4310
      4305      4308      4309      4311      4306      4305      4308      4309
      4307      4305      4308      4309      4308      4309      4311      4312
      4308      4309      4311      4313      4308      4309      4311      4361
      4309      4311      4361      4362      4309      4311      4361      4363
      4309      4311      4361      4364      4310      4309      4311      4312
      4310      4309      4311      4313      4310      4309      4311      4361
      4311      4361      4364      4365      4311      4361      4364      4366
      4311      4361      4364      4367      4312      4311      4361      4362
      4312      4311      4361      4363      4312      4311      4361      4364
      4313      4311      4361      4362      4313      4311      4361      4363
      4313      4311      4361      4364      4314      4317      4320      4321
      4314      4317      4320      4322      4314      4317      4320      4323
      4315      4314      4317      4318      4315      4314      4317      4319
      4315      4314      4317      4320      4316      4314      4317      4318
      4316      4314      4317      4319      4316      4314      4317      4320
      4317      4320      4323      4324      4317      4320      4323      4325
      4317      4320      4323      4326      4318      4317      4320      4321
      4318      4317      4320      4322      4318      4317      4320      4323
      4319      4317      4320      4321      4319      4317      4320      4322
      4319      4317      4320      4323      4320      4323      4326      4327
      4320      4323      4326      4328      4320      4323      4326      4329
      4321      4320      4323      4324      4321      4320      4323      4325
      4321      4320      4323      4326      4322      4320      4323      4324
      4322      4320      4323      4325      4322      4320      4323      4326
      4323      4326      4329      4330      4323      4326      4329      4331
      4323      4326      4329      4332      4324      4323      4326      4327
      4324      4323      4326      4328      4324      4323      4326      4329
      4325      4323      4326      4327      4325      4323      4326      4328
      4325      4323      4326      4329      4326      4329      4332      4333
      4326      4329      4332      4334      4327      4326      4329      4330
      4327      4326      4329      4331      4327      4326      4329      4332
      4328      4326      4329      4330      4328      4326      4329      4331
      4328      4326      4329      4332      4329      4332      4334      4335
      4329      4332      4334      4336      4330      4329      4332      4333
      4330      4329      4332      4334      4331      4329      4332      4333
      4331      4329      4332      4334      4332      4334      4336      4337
      4332      4334      4336      4338      4332      4334      4336      4339
      4333      4332      4334      4335      4333      4332      4334      4336
      4334      4336      4339      4340      4334      4336      4339      4341
      4334      4336      4339      4342      4335      4334      4336      4337
      4335      4334      4336      4338      4335      4334      4336      4339
      4336      4339      4342      4343      4336      4339      4342      4344
      4336      4339      4342      4345      4337      4336      4339      4340
      4337      4336      4339      4341      4337      4336      4339      4342
      4338      4336      4339      4340      4338      4336      4339      4341
      4338      4336      4339      4342      4339      4342      4345      4346
      4339      4342      4345      4347      4339      4342      4345      4348
      4340      4339      4342      4343      4340      4339      4342      4344
      4340      4339      4342      4345      4341      4339      4342      4343
      4341      4339      4342      4344      4341      4339      4342      4345
      4342      4345      4348      4349      4342      4345      4348      4350
      4342      4345      4348      4351      4343      4342      4345      4346
      4343      4342      4345      4347      4343      4342      4345      4348
      4344      4342      4345      4346      4344      4342      4345      4347
      4344      4342      4345      4348      4345      4348      4351      4352
      4345      4348      4351      4353      4345      4348      4351      4354
      4346      4345      4348      4349      4346      4345      4348      4350
      4346      4345      4348      4351      4347      4345      4348      4349
      4347      4345      4348      4350      4347      4345      4348      4351
      4348      4351      4354      4355      4348      4351      4354      4356
      4348      4351      4354      4357      4349      4348      4351      4352
      4349      4348      4351      4353      4349      4348      4351      4354
      4350      4348      4351      4352      4350      4348      4351      4353
      4350      4348      4351      4354      4351      4354      4357      4358
      4351      4354      4357      4359      4351      4354      4357      4360
      4352      4351      4354      4355      4352      4351      4354      4356
      4352      4351      4354      4357      4353      4351      4354      4355
      4353      4351      4354      4356      4353      4351      4354      4357
      4355      4354      4357      4358      4355      4354      4357      4359
      4355      4354      4357      4360      4356      4354      4357      4358
      4356      4354      4357      4359      4356      4354      4357      4360
      4361      4364      4367      4368      4361      4364      4367      4369
      4361      4364      4367      4370      4362      4361      4364      4365
      4362      4361      4364      4366      4362      4361      4364      4367
      4363      4361      4364      4365      4363      4361      4364      4366
      4363      4361      4364      4367      4364      4367      4370      4371
      4364      4367      4370      4372      4364      4367      4370      4373
      4365      4364      4367      4368      4365      4364      4367      4369
      4365      4364      4367      4370      4366      4364      4367      4368
      4366      4364      4367      4369      4366      4364      4367      4370
      4367      4370      4373      4374      4367      4370      4373      4375
      4367      4370      4373      4376      4368      4367      4370      4371
      4368      4367      4370      4372      4368      4367      4370      4373
      4369      4367      4370      4371      4369      4367      4370      4372
      4369      4367      4370      4373      4370      4373      4376      4377
      4370      4373      4376      4378      4370      4373      4376      4379
      4371      4370      4373      4374      4371      4370      4373      4375
      4371      4370      4373      4376      4372      4370      4373      4374
      4372      4370      4373      4375      4372      4370      4373      4376
      4373      4376      4379      4380      4373      4376      4379      4381
      4373      4376      4379      4382      4374      4373      4376      4377
      4374      4373      4376      4378      4374      4373      4376      4379
      4375      4373      4376      4377      4375      4373      4376      4378
      4375      4373      4376      4379      4376      4379      4382      4383
      4376      4379      4382      4384      4376      4379      4382      4385
      4377      4376      4379      4380      4377      4376      4379      4381
      4377      4376      4379      4382      4378      4376      4379      4380
      4378      4376      4379      4381      4378      4376      4379      4382
      4379      4382      4385      4386      4379      4382      4385      4387
      4379      4382      4385      4388      4380      4379      4382      4383
      4380      4379      4382      4384      4380      4379      4382      4385
      4381      4379      4382      4383      4381      4379      4382      4384
      4381      4379      4382      4385      4382      4385      4388      4389
      4382      4385      4388      4390      4382      4385      4388      4391
      4383      4382      4385      4386      4383      4382      4385      4387
      4383      4382      4385      4388      4384      4382      4385      4386
      4384      4382      4385      4387      4384      4382      4385      4388
      4385      4388      4391      4392      4385      4388      4391      4393
      4385      4388      4391      4394      4386      4385      4388      4389
      4386      4385      4388      4390      4386      4385      4388      4391
      4387      4385      4388      4389      4387      4385      4388      4390
      4387      4385      4388      4391      4388      4391      4394      4395
      4388      4391      4394      4396      4388      4391      4394      4397
      4389      4388      4391      4392      4389      4388      4391      4393
      4389      4388      4391      4394      4390      4388      4391      4392
      4390      4388      4391      4393      4390      4388      4391      4394
      4391      4394      4397      4398      4391      4394      4397      4399
      4391      4394      4397      4400      4392      4391      4394      4395
      4392      4391      4394      4396      4392      4391      4394      4397
      4393      4391      4394      4395      4393      4391      4394      4396
      4393      4391      4394      4397      4394      4397      4400      4401
      4394      4397      4400      4402      4394      4397      4400      4403
      4395      4394      4397      4398      4395      4394      4397      4399
      4395      4394      4397      4400      4396      4394      4397      4398
      4396      4394      4397      4399      4396      4394      4397      4400
      4398      4397      4400      4401      4398      4397      4400      4402
      4398      4397      4400      4403      4399      4397      4400      4401
      4399      4397      4400      4402      4399      4397      4400      4403
      4404      4408      4411      4412      4404      4408      4411      4413
      4404      4408      4411      4418      4405      4404      4408      4409
      4405      4404      4408      4410      4405      4404      4408      4411
      4406      4404      4408      4409      4406      4404      4408      4410
      4406      4404      4408      4411      4407      4404      4408      4409
      4407      4404      4408      4410      4407      4404      4408      4411
      4408      4411      4418      4414      4409      4408      4411      4412
      4409      4408      4411      4413      4409      4408      4411      4418
      4410      4408      4411      4412      4410      4408      4411      4413
      4410      4408      4411      4418      4411      4418      4414      4415
      4411      4418      4414      4416      4411      4418      4414      4417
      4412      4411      4418      4414      4413      4411      4418      4414
      4414      4417      4419      4420      4414      4417      4419      4421
      4414      4417      4419      4422      4415      4414      4417      4419
      4416      4414      4417      4419      4417      4419      4422      4423
      4417      4419      4422      4424      4417      4419      4422      4430
      4418      4414      4417      4419      4419      4422      4424      4425
      4419      4422      4430      4431      4419      4422      4430      4432
      4419      4422      4430      4433      4420      4419      4422      4423
      4420      4419      4422      4424      4420      4419      4422      4430
      4421      4419      4422      4423      4421      4419      4422      4424
      4421      4419      4422      4430      4422      4424      4425      4426
      4422      4424      4425      4427      4422      4430      4433      4434
      4423      4422      4424      4425      4423      4422      4430      4431
      4423      4422      4430      4432      4423      4422      4430      4433
      4424      4422      4430      4431      4424      4422      4430      4432
      4424      4422      4430      4433      4424      4425      4427      4428
      4424      4425      4427      4429      4424      4425      4427      4439
      4425      4424      4422      4430      4425      4427      4439      4440
      4425      4427      4439      4441      4425      4427      4439      4442
      4426      4425      4427      4428      4426      4425      4427      4429
      4426      4425      4427      4439      4427      4439      4442      4443
      4427      4439      4442      4444      4427      4439      4442      4445
      4428      4427      4439      4440      4428      4427      4439      4441
      4428      4427      4439      4442      4429      4427      4439      4440
      4429      4427      4439      4441      4429      4427      4439      4442
      4430      4433      4434      4435      4430      4433      4434      4436
      4431      4430      4433      4434      4432      4430      4433      4434
      4433      4434      4436      4437      4433      4434      4436      4438
      4433      4434      4436      4480      4434      4436      4480      4481
      4434      4436      4480      4482      4434      4436      4480      4483
      4435      4434      4436      4437      4435      4434      4436      4438
      4435      4434      4436      4480      4436      4480      4483      4484
      4436      4480      4483      4485      4436      4480      4483      4486
      4437      4436      4480      4481      4437      4436      4480      4482
      4437      4436      4480      4483      4438      4436      4480      4481
      4438      4436      4480      4482      4438      4436      4480      4483
      4439      4442      4445      4446      4439      4442      4445      4447
      4439      4442      4445      4448      4440      4439      4442      4443
      4440      4439      4442      4444      4440      4439      4442      4445
      4441      4439      4442      4443      4441      4439      4442      4444
      4441      4439      4442      4445      4442      4445      4448      4449
      4442      4445      4448      4450      4442      4445      4448      4451
      4443      4442      4445      4446      4443      4442      4445      4447
      4443      4442      4445      4448      4444      4442      4445      4446
      4444      4442      4445      4447      4444      4442      4445      4448
      4445      4448      4451      4452      4445      4448      4451      4453
      4445      4448      4451      4454      4446      4445      4448      4449
      4446      4445      4448      4450      4446      4445      4448      4451
      4447      4445      4448      4449      4447      4445      4448      4450
      4447      4445      4448      4451      4448      4451      4454      4455
      4448      4451      4454      4456      4448      4451      4454      4457
      4449      4448      4451      4452      4449      4448      4451      4453
      4449      4448      4451      4454      4450      4448      4451      4452
      4450      4448      4451      4453      4450      4448      4451      4454
      4451      4454      4457      4458      4451      4454      4457      4459
      4452      4451      4454      4455      4452      4451      4454      4456
      4452      4451      4454      4457      4453      4451      4454      4455
      4453      4451      4454      4456      4453      4451      4454      4457
      4454      4457      4459      4460      4454      4457      4459      4461
      4455      4454      4457      4458      4455      4454      4457      4459
      4456      4454      4457      4458      4456      4454      4457      4459
      4457      4459      4461      4462      4457      4459      4461      4463
      4457      4459      4461      4464      4458      4457      4459      4460
      4458      4457      4459      4461      4459      4461      4464      4465
      4459      4461      4464      4466      4459      4461      4464      4467
      4460      4459      4461      4462      4460      4459      4461      4463
      4460      4459      4461      4464      4461      4464      4467      4468
      4461      4464      4467      4469      4461      4464      4467      4470
      4462      4461      4464      4465      4462      4461      4464      4466
      4462      4461      4464      4467      4463      4461      4464      4465
      4463      4461      4464      4466      4463      4461      4464      4467
      4464      4467      4470      4471      4464      4467      4470      4472
      4464      4467      4470      4473      4465      4464      4467      4468
      4465      4464      4467      4469      4465      4464      4467      4470
      4466      4464      4467      4468      4466      4464      4467      4469
      4466      4464      4467      4470      4467      4470      4473      4474
      4467      4470      4473      4475      4467      4470      4473      4476
      4468      4467      4470      4471      4468      4467      4470      4472
      4468      4467      4470      4473      4469      4467      4470      4471
      4469      4467      4470      4472      4469      4467      4470      4473
      4470      4473      4476      4477      4470      4473      4476      4478
      4470      4473      4476      4479      4471      4470      4473      4474
      4471      4470      4473      4475      4471      4470      4473      4476
      4472      4470      4473      4474      4472      4470      4473      4475
      4472      4470      4473      4476      4474      4473      4476      4477
      4474      4473      4476      4478      4474      4473      4476      4479
      4475      4473      4476      4477      4475      4473      4476      4478
      4475      4473      4476      4479      4480      4483      4486      4487
      4480      4483      4486      4488      4480      4483      4486      4489
      4481      4480      4483      4484      4481      4480      4483      4485
      4481      4480      4483      4486      4482      4480      4483      4484
      4482      4480      4483      4485      4482      4480      4483      4486
      4483      4486      4489      4490      4483      4486      4489      4491
      4483      4486      4489      4492      4484      4483      4486      4487
      4484      4483      4486      4488      4484      4483      4486      4489
      4485      4483      4486      4487      4485      4483      4486      4488
      4485      4483      4486      4489      4486      4489      4492      4493
      4486      4489      4492      4494      4486      4489      4492      4495
      4487      4486      4489      4490      4487      4486      4489      4491
      4487      4486      4489      4492      4488      4486      4489      4490
      4488      4486      4489      4491      4488      4486      4489      4492
      4489      4492      4495      4496      4489      4492      4495      4497
      4489      4492      4495      4498      4490      4489      4492      4493
      4490      4489      4492      4494      4490      4489      4492      4495
      4491      4489      4492      4493      4491      4489      4492      4494
      4491      4489      4492      4495      4492      4495      4498      4499
      4492      4495      4498      4500      4493      4492      4495      4496
      4493      4492      4495      4497      4493      4492      4495      4498
      4494      4492      4495      4496      4494      4492      4495      4497
      4494      4492      4495      4498      4495      4498      4500      4501
      4495      4498      4500      4502      4496      4495      4498      4499
      4496      4495      4498      4500      4497      4495      4498      4499
      4497      4495      4498      4500      4498      4500      4502      4503
      4498      4500      4502      4504      4498      4500      4502      4505
      4499      4498      4500      4501      4499      4498      4500      4502
      4500      4502      4505      4506      4500      4502      4505      4507
      4500      4502      4505      4508      4501      4500      4502      4503
      4501      4500      4502      4504      4501      4500      4502      4505
      4502      4505      4508      4509      4502      4505      4508      4510
      4502      4505      4508      4511      4503      4502      4505      4506
      4503      4502      4505      4507      4503      4502      4505      4508
      4504      4502      4505      4506      4504      4502      4505      4507
      4504      4502      4505      4508      4505      4508      4511      4512
      4505      4508      4511      4513      4505      4508      4511      4514
      4506      4505      4508      4509      4506      4505      4508      4510
      4506      4505      4508      4511      4507      4505      4508      4509
      4507      4505      4508      4510      4507      4505      4508      4511
      4508      4511      4514      4515      4508      4511      4514      4516
      4508      4511      4514      4517      4509      4508      4511      4512
      4509      4508      4511      4513      4509      4508      4511      4514
      4510      4508      4511      4512      4510      4508      4511      4513
      4510      4508      4511      4514      4511      4514      4517      4518
      4511      4514      4517      4519      4511      4514      4517      4520
      4512      4511      4514      4515      4512      4511      4514      4516
      4512      4511      4514      4517      4513      4511      4514      4515
      4513      4511      4514      4516      4513      4511      4514      4517
      4514      4517      4520      4521      4514      4517      4520      4522
      4514      4517      4520      4523      4515      4514      4517      4518
      4515      4514      4517      4519      4515      4514      4517      4520
      4516      4514      4517      4518      4516      4514      4517      4519
      4516      4514      4517      4520      4517      4520      4523      4524
      4517      4520      4523      4525      4517      4520      4523      4526
      4518      4517      4520      4521      4518      4517      4520      4522
      4518      4517      4520      4523      4519      4517      4520      4521
      4519      4517      4520      4522      4519      4517      4520      4523
      4521      4520      4523      4524      4521      4520      4523      4525
      4521      4520      4523      4526      4522      4520      4523      4524
      4522      4520      4523      4525      4522      4520      4523      4526
      4527      4531      4534      4535      4527      4531      4534      4536
      4527      4531      4534      4541      4528      4527      4531      4532
      4528      4527      4531      4533      4528      4527      4531      4534
      4529      4527      4531      4532      4529      4527      4531      4533
      4529      4527      4531      4534      4530      4527      4531      4532
      4530      4527      4531      4533      4530      4527      4531      4534
      4531      4534      4541      4537      4532      4531      4534      4535
      4532      4531      4534      4536      4532      4531      4534      4541
      4533      4531      4534      4535      4533      4531      4534      4536
      4533      4531      4534      4541      4534      4541      4537      4538
      4534      4541      4537      4539      4534      4541      4537      4540
      4535      4534      4541      4537      4536      4534      4541      4537
      4537      4540      4542      4543      4537      4540      4542      4544
      4537      4540      4542      4545      4538      4537      4540      4542
      4539      4537      4540      4542      4540      4542      4545      4546
      4540      4542      4545      4547      4540      4542      4545      4553
      4541      4537      4540      4542      4542      4545      4547      4548
      4542      4545      4553      4554      4542      4545      4553      4555
      4542      4545      4553      4556      4543      4542      4545      4546
      4543      4542      4545      4547      4543      4542      4545      4553
      4544      4542      4545      4546      4544      4542      4545      4547
      4544      4542      4545      4553      4545      4547      4548      4549
      4545      4547      4548      4550      4545      4553      4556      4557
      4546      4545      4547      4548      4546      4545      4553      4554
      4546      4545      4553      4555      4546      4545      4553      4556
      4547      4545      4553      4554      4547      4545      4553      4555
      4547      4545      4553      4556      4547      4548      4550      4551
      4547      4548      4550      4552      4547      4548      4550      4562
      4548      4547      4545      4553      4548      4550      4562      4563
      4548      4550      4562      4564      4548      4550      4562      4565
      4549      4548      4550      4551      4549      4548      4550      4552
      4549      4548      4550      4562      4550      4562      4565      4566
      4550      4562      4565      4567      4550      4562      4565      4568
      4551      4550      4562      4563      4551      4550      4562      4564
      4551      4550      4562      4565      4552      4550      4562      4563
      4552      4550      4562      4564      4552      4550      4562      4565
      4553      4556      4557      4558      4553      4556      4557      4559
      4554      4553      4556      4557      4555      4553      4556      4557
      4556      4557      4559      4560      4556      4557      4559      4561
      4556      4557      4559      4606      4557      4559      4606      4607
      4557      4559      4606      4608      4557      4559      4606      4609
      4558      4557      4559      4560      4558      4557      4559      4561
      4558      4557      4559      4606      4559      4606      4609      4610
      4559      4606      4609      4611      4559      4606      4609      4612
      4560      4559      4606      4607      4560      4559      4606      4608
      4560      4559      4606      4609      4561      4559      4606      4607
      4561      4559      4606      4608      4561      4559      4606      4609
      4562      4565      4568      4569      4562      4565      4568      4570
      4562      4565      4568      4571      4563      4562      4565      4566
      4563      4562      4565      4567      4563      4562      4565      4568
      4564      4562      4565      4566      4564      4562      4565      4567
      4564      4562      4565      4568      4565      4568      4571      4572
      4565      4568      4571      4573      4565      4568      4571      4574
      4566      4565      4568      4569      4566      4565      4568      4570
      4566      4565      4568      4571      4567      4565      4568      4569
      4567      4565      4568      4570      4567      4565      4568      4571
      4568      4571      4574      4575      4568      4571      4574      4576
      4568      4571      4574      4577      4569      4568      4571      4572
      4569      4568      4571      4573      4569      4568      4571      4574
      4570      4568      4571      4572      4570      4568      4571      4573
      4570      4568      4571      4574      4571      4574      4577      4578
      4571      4574      4577      4579      4571      4574      4577      4580
      4572      4571      4574      4575      4572      4571      4574      4576
      4572      4571      4574      4577      4573      4571      4574      4575
      4573      4571      4574      4576      4573      4571      4574      4577
      4574      4577      4580      4581      4574      4577      4580      4582
      4574      4577      4580      4585      4575      4574      4577      4578
      4575      4574      4577      4579      4575      4574      4577      4580
      4576      4574      4577      4578      4576      4574      4577      4579
      4576      4574      4577      4580      4577      4580      4582      4583
      4577      4580      4582      4584      4577      4580      4582      4585
      4577      4580      4585      4582      4577      4580      4585      4586
      4577      4580      4585      4587      4578      4577      4580      4581
      4578      4577      4580      4582      4578      4577      4580      4585
      4579      4577      4580      4581      4579      4577      4580      4582
      4579      4577      4580      4585      4580      4582      4585      4586
      4580      4582      4585      4587      4580      4585      4582      4583
      4580      4585      4582      4584      4580      4585      4587      4588
      4580      4585      4587      4589      4580      4585      4587      4590
      4581      4580      4582      4583      4581      4580      4582      4584
      4581      4580      4582      4585      4581      4580      4585      4582
      4581      4580      4585      4586      4581      4580      4585      4587
      4582      4580      4585      4586      4582      4580      4585      4587
      4582      4585      4587      4588      4582      4585      4587      4589
      4582      4585      4587      4590      4583      4582      4580      4585
      4583      4582      4585      4586      4583      4582      4585      4587
      4584      4582      4580      4585      4584      4582      4585      4586
      4584      4582      4585      4587      4585      4587      4590      4591
      4585      4587      4590      4592      4585      4587      4590      4593
      4586      4585      4587      4588      4586      4585      4587      4589
      4586      4585      4587      4590      4587      4590      4593      4594
      4587      4590      4593      4595      4587      4590      4593      4596
      4588      4587      4590      4591      4588      4587      4590      4592
      4588      4587      4590      4593      4589      4587      4590      4591
      4589      4587      4590      4592      4589      4587      4590      4593
      4590      4593      4596      4597      4590      4593      4596      4598
      4590      4593      4596      4599      4591      4590      4593      4594
      4591      4590      4593      4595      4591      4590      4593      4596
      4592      4590      4593      4594      4592      4590      4593      4595
      4592      4590      4593      4596      4593      4596      4599      4600
      4593      4596      4599      4601      4593      4596      4599      4602
      4594      4593      4596      4597      4594      4593      4596      4598
      4594      4593      4596      4599      4595      4593      4596      4597
      4595      4593      4596      4598      4595      4593      4596      4599
      4596      4599      4602      4603      4596      4599      4602      4604
      4596      4599      4602      4605      4597      4596      4599      4600
      4597      4596      4599      4601      4597      4596      4599      4602
      4598      4596      4599      4600      4598      4596      4599      4601
      4598      4596      4599      4602      4600      4599      4602      4603
      4600      4599      4602      4604      4600      4599      4602      4605
      4601      4599      4602      4603      4601      4599      4602      4604
      4601      4599      4602      4605      4606      4609      4612      4613
      4606      4609      4612      4614      4606      4609      4612      4615
      4607      4606      4609      4610      4607      4606      4609      4611
      4607      4606      4609      4612      4608      4606      4609      4610
      4608      4606      4609      4611      4608      4606      4609      4612
      4609      4612      4615      4616      4609      4612      4615      4617
      4609      4612      4615      4618      4610      4609      4612      4613
      4610      4609      4612      4614      4610      4609      4612      4615
      4611      4609      4612      4613      4611      4609      4612      4614
      4611      4609      4612      4615      4612      4615      4618      4619
      4612      4615      4618      4620      4612      4615      4618      4621
      4613      4612      4615      4616      4613      4612      4615      4617
      4613      4612      4615      4618      4614      4612      4615      4616
      4614      4612      4615      4617      4614      4612      4615      4618
      4615      4618      4621      4622      4615      4618      4621      4623
      4615      4618      4621      4624      4616      4615      4618      4619
      4616      4615      4618      4620      4616      4615      4618      4621
      4617      4615      4618      4619      4617      4615      4618      4620
      4617      4615      4618      4621      4618      4621      4624      4625
      4618      4621      4624      4626      4618      4621      4624      4627
      4619      4618      4621      4622      4619      4618      4621      4623
      4619      4618      4621      4624      4620      4618      4621      4622
      4620      4618      4621      4623      4620      4618      4621      4624
      4621      4624      4627      4628      4621      4624      4627      4629
      4621      4624      4627      4630      4622      4621      4624      4625
      4622      4621      4624      4626      4622      4621      4624      4627
      4623      4621      4624      4625      4623      4621      4624      4626
      4623      4621      4624      4627      4624      4627      4630      4631
      4624      4627      4630      4632      4624      4627      4630      4633
      4625      4624      4627      4628      4625      4624      4627      4629
      4625      4624      4627      4630      4626      4624      4627      4628
      4626      4624      4627      4629      4626      4624      4627      4630
      4627      4630      4633      4634      4627      4630      4633      4635
      4627      4630      4633      4636      4628      4627      4630      4631
      4628      4627      4630      4632      4628      4627      4630      4633
      4629      4627      4630      4631      4629      4627      4630      4632
      4629      4627      4630      4633      4630      4633      4636      4637
      4630      4633      4636      4638      4630      4633      4636      4639
      4631      4630      4633      4634      4631      4630      4633      4635
      4631      4630      4633      4636      4632      4630      4633      4634
      4632      4630      4633      4635      4632      4630      4633      4636
      4633      4636      4639      4640      4633      4636      4639      4641
      4633      4636      4639      4642      4634      4633      4636      4637
      4634      4633      4636      4638      4634      4633      4636      4639
      4635      4633      4636      4637      4635      4633      4636      4638
      4635      4633      4636      4639      4636      4639      4642      4643
      4636      4639      4642      4644      4636      4639      4642      4645
      4637      4636      4639      4640      4637      4636      4639      4641
      4637      4636      4639      4642      4638      4636      4639      4640
      4638      4636      4639      4641      4638      4636      4639      4642
      4639      4642      4645      4646      4639      4642      4645      4647
      4639      4642      4645      4648      4640      4639      4642      4643
      4640      4639      4642      4644      4640      4639      4642      4645
      4641      4639      4642      4643      4641      4639      4642      4644
      4641      4639      4642      4645      4643      4642      4645      4646
      4643      4642      4645      4647      4643      4642      4645      4648
      4644      4642      4645      4646      4644      4642      4645      4647
      4644      4642      4645      4648      4649      4653      4656      4657
      4649      4653      4656      4658      4649      4653      4656      4663
      4650      4649      4653      4654      4650      4649      4653      4655
      4650      4649      4653      4656      4651      4649      4653      4654
      4651      4649      4653      4655      4651      4649      4653      4656
      4652      4649      4653      4654      4652      4649      4653      4655
      4652      4649      4653      4656      4653      4656      4663      4659
      4654      4653      4656      4657      4654      4653      4656      4658
      4654      4653      4656      4663      4655      4653      4656      4657
      4655      4653      4656      4658      4655      4653      4656      4663
      4656      4663      4659      4660      4656      4663      4659      4661
      4656      4663      4659      4662      4657      4656      4663      4659
      4658      4656      4663      4659      4659      4662      4664      4665
      4659      4662      4664      4666      4659      4662      4664      4667
      4660      4659      4662      4664      4661      4659      4662      4664
      4662      4664      4667      4668      4662      4664      4667      4669
      4662      4664      4667      4675      4663      4659      4662      4664
      4664      4667      4669      4670      4664      4667      4675      4676
      4664      4667      4675      4677      4664      4667      4675      4678
      4665      4664      4667      4668      4665      4664      4667      4669
      4665      4664      4667      4675      4666      4664      4667      4668
      4666      4664      4667      4669      4666      4664      4667      4675
      4667      4669      4670      4671      4667      4669      4670      4672
      4667      4675      4678      4679      4668      4667      4669      4670
      4668      4667      4675      4676      4668      4667      4675      4677
      4668      4667      4675      4678      4669      4667      4675      4676
      4669      4667      4675      4677      4669      4667      4675      4678
      4669      4670      4672      4673      4669      4670      4672      4674
      4669      4670      4672      4684      4670      4669      4667      4675
      4670      4672      4684      4685      4670      4672      4684      4686
      4670      4672      4684      4687      4671      4670      4672      4673
      4671      4670      4672      4674      4671      4670      4672      4684
      4672      4684      4687      4688      4672      4684      4687      4689
      4672      4684      4687      4690      4673      4672      4684      4685
      4673      4672      4684      4686      4673      4672      4684      4687
      4674      4672      4684      4685      4674      4672      4684      4686
      4674      4672      4684      4687      4675      4678      4679      4680
      4675      4678      4679      4681      4676      4675      4678      4679
      4677      4675      4678      4679      4678      4679      4681      4682
      4678      4679      4681      4683      4678      4679      4681      4728
      4679      4681      4728      4729      4679      4681      4728      4730
      4679      4681      4728      4731      4680      4679      4681      4682
      4680      4679      4681      4683      4680      4679      4681      4728
      4681      4728      4731      4732      4681      4728      4731      4733
      4681      4728      4731      4734      4682      4681      4728      4729
      4682      4681      4728      4730      4682      4681      4728      4731
      4683      4681      4728      4729      4683      4681      4728      4730
      4683      4681      4728      4731      4684      4687      4690      4691
      4684      4687      4690      4692      4684      4687      4690      4693
      4685      4684      4687      4688      4685      4684      4687      4689
      4685      4684      4687      4690      4686      4684      4687      4688
      4686      4684      4687      4689      4686      4684      4687      4690
      4687      4690      4693      4694      4687      4690      4693      4695
      4687      4690      4693      4696      4688      4687      4690      4691
      4688      4687      4690      4692      4688      4687      4690      4693
      4689      4687      4690      4691      4689      4687      4690      4692
      4689      4687      4690      4693      4690      4693      4696      4697
      4690      4693      4696      4698      4690      4693      4696      4699
      4691      4690      4693      4694      4691      4690      4693      4695
      4691      4690      4693      4696      4692      4690      4693      4694
      4692      4690      4693      4695      4692      4690      4693      4696
      4693      4696      4699      4700      4693      4696      4699      4701
      4693      4696      4699      4702      4694      4693      4696      4697
      4694      4693      4696      4698      4694      4693      4696      4699
      4695      4693      4696      4697      4695      4693      4696      4698
      4695      4693      4696      4699      4696      4699      4702      4703
      4696      4699      4702      4704      4696      4699      4702      4707
      4697      4696      4699      4700      4697      4696      4699      4701
      4697      4696      4699      4702      4698      4696      4699      4700
      4698      4696      4699      4701      4698      4696      4699      4702
      4699      4702      4704      4705      4699      4702      4704      4706
      4699      4702      4704      4707      4699      4702      4707      4704
      4699      4702      4707      4708      4699      4702      4707      4709
      4700      4699      4702      4703      4700      4699      4702      4704
      4700      4699      4702      4707      4701      4699      4702      4703
      4701      4699      4702      4704      4701      4699      4702      4707
      4702      4704      4707      4708      4702      4704      4707      4709
      4702      4707      4704      4705      4702      4707      4704      4706
      4702      4707      4709      4710      4702      4707      4709      4711
      4702      4707      4709      4712      4703      4702      4704      4705
      4703      4702      4704      4706      4703      4702      4704      4707
      4703      4702      4707      4704      4703      4702      4707      4708
      4703      4702      4707      4709      4704      4702      4707      4708
      4704      4702      4707      4709      4704      4707      4709      4710
      4704      4707      4709      4711      4704      4707      4709      4712
      4705      4704      4702      4707      4705      4704      4707      4708
      4705      4704      4707      4709      4706      4704      4702      4707
      4706      4704      4707      4708      4706      4704      4707      4709
      4707      4709      4712      4713      4707      4709      4712      4714
      4707      4709      4712      4715      4708      4707      4709      4710
      4708      4707      4709      4711      4708      4707      4709      4712
      4709      4712      4715      4716      4709      4712      4715      4717
      4709      4712      4715      4718      4710      4709      4712      4713
      4710      4709      4712      4714      4710      4709      4712      4715
      4711      4709      4712      4713      4711      4709      4712      4714
      4711      4709      4712      4715      4712      4715      4718      4719
      4712      4715      4718      4720      4712      4715      4718      4721
      4713      4712      4715      4716      4713      4712      4715      4717
      4713      4712      4715      4718      4714      4712      4715      4716
      4714      4712      4715      4717      4714      4712      4715      4718
      4715      4718      4721      4722      4715      4718      4721      4723
      4715      4718      4721      4724      4716      4715      4718      4719
      4716      4715      4718      4720      4716      4715      4718      4721
      4717      4715      4718      4719      4717      4715      4718      4720
      4717      4715      4718      4721      4718      4721      4724      4725
      4718      4721      4724      4726      4718      4721      4724      4727
      4719      4718      4721      4722      4719      4718      4721      4723
      4719      4718      4721      4724      4720      4718      4721      4722
      4720      4718      4721      4723      4720      4718      4721      4724
      4722      4721      4724      4725      4722      4721      4724      4726
      4722      4721      4724      4727      4723      4721      4724      4725
      4723      4721      4724      4726      4723      4721      4724      4727
      4728      4731      4734      4735      4728      4731      4734      4736
      4728      4731      4734      4737      4729      4728      4731      4732
      4729      4728      4731      4733      4729      4728      4731      4734
      4730      4728      4731      4732      4730      4728      4731      4733
      4730      4728      4731      4734      4731      4734      4737      4738
      4731      4734      4737      4739      4731      4734      4737      4740
      4732      4731      4734      4735      4732      4731      4734      4736
      4732      4731      4734      4737      4733      4731      4734      4735
      4733      4731      4734      4736      4733      4731      4734      4737
      4734      4737      4740      4741      4734      4737      4740      4742
      4734      4737      4740      4743      4735      4734      4737      4738
      4735      4734      4737      4739      4735      4734      4737      4740
      4736      4734      4737      4738      4736      4734      4737      4739
      4736      4734      4737      4740      4737      4740      4743      4744
      4737      4740      4743      4745      4737      4740      4743      4746
      4738      4737      4740      4741      4738      4737      4740      4742
      4738      4737      4740      4743      4739      4737      4740      4741
      4739      4737      4740      4742      4739      4737      4740      4743
      4740      4743      4746      4747      4740      4743      4746      4748
      4740      4743      4746      4749      4741      4740      4743      4744
      4741      4740      4743      4745      4741      4740      4743      4746
      4742      4740      4743      4744      4742      4740      4743      4745
      4742      4740      4743      4746      4743      4746      4749      4750
      4743      4746      4749      4751      4743      4746      4749      4752
      4744      4743      4746      4747      4744      4743      4746      4748
      4744      4743      4746      4749      4745      4743      4746      4747
      4745      4743      4746      4748      4745      4743      4746      4749
      4746      4749      4752      4753      4746      4749      4752      4754
      4746      4749      4752      4755      4747      4746      4749      4750
      4747      4746      4749      4751      4747      4746      4749      4752
      4748      4746      4749      4750      4748      4746      4749      4751
      4748      4746      4749      4752      4749      4752      4755      4756
      4749      4752      4755      4757      4749      4752      4755      4758
      4750      4749      4752      4753      4750      4749      4752      4754
      4750      4749      4752      4755      4751      4749      4752      4753
      4751      4749      4752      4754      4751      4749      4752      4755
      4752      4755      4758      4759      4752      4755      4758      4760
      4752      4755      4758      4761      4753      4752      4755      4756
      4753      4752      4755      4757      4753      4752      4755      4758
      4754      4752      4755      4756      4754      4752      4755      4757
      4754      4752      4755      4758      4755      4758      4761      4762
      4755      4758      4761      4763      4755      4758      4761      4764
      4756      4755      4758      4759      4756      4755      4758      4760
      4756      4755      4758      4761      4757      4755      4758      4759
      4757      4755      4758      4760      4757      4755      4758      4761
      4758      4761      4764      4765      4758      4761      4764      4766
      4758      4761      4764      4767      4759      4758      4761      4762
      4759      4758      4761      4763      4759      4758      4761      4764
      4760      4758      4761      4762      4760      4758      4761      4763
      4760      4758      4761      4764      4761      4764      4767      4768
      4761      4764      4767      4769      4761      4764      4767      4770
      4762      4761      4764      4765      4762      4761      4764      4766
      4762      4761      4764      4767      4763      4761      4764      4765
      4763      4761      4764      4766      4763      4761      4764      4767
      4765      4764      4767      4768      4765      4764      4767      4769
      4765      4764      4767      4770      4766      4764      4767      4768
      4766      4764      4767      4769      4766      4764      4767      4770
      4771      4776      4778      4779      4771      4776      4780      4781
      4771      4776      4780      4782      4771      4776      4780      4787
      4772      4771      4774      4775      4772      4771      4776      4777
      4772      4771      4776      4778      4772      4771      4776      4780
      4773      4771      4774      4775      4773      4771      4776      4777
      4773      4771      4776      4778      4773      4771      4776      4780
      4774      4771      4776      4777      4774      4771      4776      4778
      4774      4771      4776      4780      4775      4774      4771      4776
      4776      4780      4787      4783      4777      4776      4778      4779
      4777      4776      4780      4781      4777      4776      4780      4782
      4777      4776      4780      4787      4778      4776      4780      4781
      4778      4776      4780      4782      4778      4776      4780      4787
      4779      4778      4776      4780      4780      4787      4783      4784
      4780      4787      4783      4785      4780      4787      4783      4786
      4781      4780      4787      4783      4782      4780      4787      4783
      4783      4786      4788      4789      4783      4786      4788      4790
      4783      4786      4788      4791      4784      4783      4786      4788
      4785      4783      4786      4788      4786      4788      4791      4792
      4786      4788      4791      4793      4786      4788      4791      4799
      4787      4783      4786      4788      4788      4791      4793      4794
      4788      4791      4799      4800      4788      4791      4799      4801
      4788      4791      4799      4802      4789      4788      4791      4792
      4789      4788      4791      4793      4789      4788      4791      4799
      4790      4788      4791      4792      4790      4788      4791      4793
      4790      4788      4791      4799      4791      4793      4794      4795
      4791      4793      4794      4796      4791      4799      4802      4803
      4792      4791      4793      4794      4792      4791      4799      4800
      4792      4791      4799      4801      4792      4791      4799      4802
      4793      4791      4799      4800      4793      4791      4799      4801
      4793      4791      4799      4802      4793      4794      4796      4797
      4793      4794      4796      4798      4793      4794      4796      4808
      4794      4793      4791      4799      4794      4796      4808      4809
      4794      4796      4808      4810      4794      4796      4808      4811
      4795      4794      4796      4797      4795      4794      4796      4798
      4795      4794      4796      4808      4796      4808      4811      4812
      4796      4808      4811      4813      4796      4808      4811      4814
      4797      4796      4808      4809      4797      4796      4808      4810
      4797      4796      4808      4811      4798      4796      4808      4809
      4798      4796      4808      4810      4798      4796      4808      4811
      4799      4802      4803      4804      4799      4802      4803      4805
      4800      4799      4802      4803      4801      4799      4802      4803
      4802      4803      4805      4806      4802      4803      4805      4807
      4802      4803      4805      4852      4803      4805      4852      4853
      4803      4805      4852      4854      4803      4805      4852      4855
      4804      4803      4805      4806      4804      4803      4805      4807
      4804      4803      4805      4852      4805      4852      4855      4856
      4805      4852      4855      4857      4805      4852      4855      4858
      4806      4805      4852      4853      4806      4805      4852      4854
      4806      4805      4852      4855      4807      4805      4852      4853
      4807      4805      4852      4854      4807      4805      4852      4855
      4808      4811      4814      4815      4808      4811      4814      4816
      4808      4811      4814      4817      4809      4808      4811      4812
      4809      4808      4811      4813      4809      4808      4811      4814
      4810      4808      4811      4812      4810      4808      4811      4813
      4810      4808      4811      4814      4811      4814      4817      4818
      4811      4814      4817      4819      4811      4814      4817      4820
      4812      4811      4814      4815      4812      4811      4814      4816
      4812      4811      4814      4817      4813      4811      4814      4815
      4813      4811      4814      4816      4813      4811      4814      4817
      4814      4817      4820      4821      4814      4817      4820      4822
      4814      4817      4820      4823      4815      4814      4817      4818
      4815      4814      4817      4819      4815      4814      4817      4820
      4816      4814      4817      4818      4816      4814      4817      4819
      4816      4814      4817      4820      4817      4820      4823      4824
      4817      4820      4823      4825      4817      4820      4823      4826
      4818      4817      4820      4821      4818      4817      4820      4822
      4818      4817      4820      4823      4819      4817      4820      4821
      4819      4817      4820      4822      4819      4817      4820      4823
      4820      4823      4826      4827      4820      4823      4826      4828
      4820      4823      4826      4831      4821      4820      4823      4824
      4821      4820      4823      4825      4821      4820      4823      4826
      4822      4820      4823      4824      4822      4820      4823      4825
      4822      4820      4823      4826      4823      4826      4828      4829
      4823      4826      4828      4830      4823      4826      4828      4831
      4823      4826      4831      4828      4823      4826      4831      4832
      4823      4826      4831      4833      4824      4823      4826      4827
      4824      4823      4826      4828      4824      4823      4826      4831
      4825      4823      4826      4827      4825      4823      4826      4828
      4825      4823      4826      4831      4826      4828      4831      4832
      4826      4828      4831      4833      4826      4831      4828      4829
      4826      4831      4828      4830      4826      4831      4833      4834
      4826      4831      4833      4835      4826      4831      4833      4836
      4827      4826      4828      4829      4827      4826      4828      4830
      4827      4826      4828      4831      4827      4826      4831      4828
      4827      4826      4831      4832      4827      4826      4831      4833
      4828      4826      4831      4832      4828      4826      4831      4833
      4828      4831      4833      4834      4828      4831      4833      4835
      4828      4831      4833      4836      4829      4828      4826      4831
      4829      4828      4831      4832      4829      4828      4831      4833
      4830      4828      4826      4831      4830      4828      4831      4832
      4830      4828      4831      4833      4831      4833      4836      4837
      4831      4833      4836      4838      4831      4833      4836      4839
      4832      4831      4833      4834      4832      4831      4833      4835
      4832      4831      4833      4836      4833      4836      4839      4840
      4833      4836      4839      4841      4833      4836      4839      4842
      4834      4833      4836      4837      4834      4833      4836      4838
      4834      4833      4836      4839      4835      4833      4836      4837
      4835      4833      4836      4838      4835      4833      4836      4839
      4836      4839      4842      4843      4836      4839      4842      4844
      4836      4839      4842      4845      4837      4836      4839      4840
      4837      4836      4839      4841      4837      4836      4839      4842
      4838      4836      4839      4840      4838      4836      4839      4841
      4838      4836      4839      4842      4839      4842      4845      4846
      4839      4842      4845      4847      4839      4842      4845      4848
      4840      4839      4842      4843      4840      4839      4842      4844
      4840      4839      4842      4845      4841      4839      4842      4843
      4841      4839      4842      4844      4841      4839      4842      4845
      4842      4845      4848      4849      4842      4845      4848      4850
      4842      4845      4848      4851      4843      4842      4845      4846
      4843      4842      4845      4847      4843      4842      4845      4848
      4844      4842      4845      4846      4844      4842      4845      4847
      4844      4842      4845      4848      4846      4845      4848      4849
      4846      4845      4848      4850      4846      4845      4848      4851
      4847      4845      4848      4849      4847      4845      4848      4850
      4847      4845      4848      4851      4852      4855      4858      4859
      4852      4855      4858      4860      4852      4855      4858      4861
      4853      4852      4855      4856      4853      4852      4855      4857
      4853      4852      4855      4858      4854      4852      4855      4856
      4854      4852      4855      4857      4854      4852      4855      4858
      4855      4858      4861      4862      4855      4858      4861      4863
      4855      4858      4861      4864      4856      4855      4858      4859
      4856      4855      4858      4860      4856      4855      4858      4861
      4857      4855      4858      4859      4857      4855      4858      4860
      4857      4855      4858      4861      4858      4861      4864      4865
      4858      4861      4864      4866      4858      4861      4864      4867
      4859      4858      4861      4862      4859      4858      4861      4863
      4859      4858      4861      4864      4860      4858      4861      4862
      4860      4858      4861      4863      4860      4858      4861      4864
      4861      4864      4867      4868      4861      4864      4867      4869
      4861      4864      4867      4870      4862      4861      4864      4865
      4862      4861      4864      4866      4862      4861      4864      4867
      4863      4861      4864      4865      4863      4861      4864      4866
      4863      4861      4864      4867      4864      4867      4870      4871
      4864      4867      4870      4872      4864      4867      4870      4873
      4865      4864      4867      4868      4865      4864      4867      4869
      4865      4864      4867      4870      4866      4864      4867      4868
      4866      4864      4867      4869      4866      4864      4867      4870
      4867      4870      4873      4874      4867      4870      4873      4875
      4867      4870      4873      4876      4868      4867      4870      4871
      4868      4867      4870      4872      4868      4867      4870      4873
      4869      4867      4870      4871      4869      4867      4870      4872
      4869      4867      4870      4873      4870      4873      4876      4877
      4870      4873      4876      4878      4870      4873      4876      4879
      4871      4870      4873      4874      4871      4870      4873      4875
      4871      4870      4873      4876      4872      4870      4873      4874
      4872      4870      4873      4875      4872      4870      4873      4876
      4873      4876      4879      4880      4873      4876      4879      4881
      4873      4876      4879      4882      4874      4873      4876      4877
      4874      4873      4876      4878      4874      4873      4876      4879
      4875      4873      4876      4877      4875      4873      4876      4878
      4875      4873      4876      4879      4876      4879      4882      4883
      4876      4879      4882      4884      4876      4879      4882      4885
      4877      4876      4879      4880      4877      4876      4879      4881
      4877      4876      4879      4882      4878      4876      4879      4880
      4878      4876      4879      4881      4878      4876      4879      4882
      4879      4882      4885      4886      4879      4882      4885      4887
      4879      4882      4885      4888      4880      4879      4882      4883
      4880      4879      4882      4884      4880      4879      4882      4885
      4881      4879      4882      4883      4881      4879      4882      4884
      4881      4879      4882      4885      4882      4885      4888      4889
      4882      4885      4888      4890      4882      4885      4888      4891
      4883      4882      4885      4886      4883      4882      4885      4887
      4883      4882      4885      4888      4884      4882      4885      4886
      4884      4882      4885      4887      4884      4882      4885      4888
      4885      4888      4891      4892      4885      4888      4891      4893
      4885      4888      4891      4894      4886      4885      4888      4889
      4886      4885      4888      4890      4886      4885      4888      4891
      4887      4885      4888      4889      4887      4885      4888      4890
      4887      4885      4888      4891      4889      4888      4891      4892
      4889      4888      4891      4893      4889      4888      4891      4894
      4890      4888      4891      4892      4890      4888      4891      4893
      4890      4888      4891      4894      4895      4899      4902      4903
      4895      4899      4902      4904      4895      4899      4902      4909
      4896      4895      4899      4900      4896      4895      4899      4901
      4896      4895      4899      4902      4897      4895      4899      4900
      4897      4895      4899      4901      4897      4895      4899      4902
      4898      4895      4899      4900      4898      4895      4899      4901
      4898      4895      4899      4902      4899      4902      4909      4905
      4900      4899      4902      4903      4900      4899      4902      4904
      4900      4899      4902      4909      4901      4899      4902      4903
      4901      4899      4902      4904      4901      4899      4902      4909
      4902      4909      4905      4906      4902      4909      4905      4907
      4902      4909      4905      4908      4903      4902      4909      4905
      4904      4902      4909      4905      4905      4908      4910      4911
      4905      4908      4910      4912      4905      4908      4910      4913
      4906      4905      4908      4910      4907      4905      4908      4910
      4908      4910      4913      4914      4908      4910      4913      4915
      4908      4910      4913      4921      4909      4905      4908      4910
      4910      4913      4915      4916      4910      4913      4921      4922
      4910      4913      4921      4923      4910      4913      4921      4924
      4911      4910      4913      4914      4911      4910      4913      4915
      4911      4910      4913      4921      4912      4910      4913      4914
      4912      4910      4913      4915      4912      4910      4913      4921
      4913      4915      4916      4917      4913      4915      4916      4918
      4913      4921      4924      4925      4914      4913      4915      4916
      4914      4913      4921      4922      4914      4913      4921      4923
      4914      4913      4921      4924      4915      4913      4921      4922
      4915      4913      4921      4923      4915      4913      4921      4924
      4915      4916      4918      4919      4915      4916      4918      4920
      4915      4916      4918      4930      4916      4915      4913      4921
      4916      4918      4930      4931      4916      4918      4930      4932
      4916      4918      4930      4933      4917      4916      4918      4919
      4917      4916      4918      4920      4917      4916      4918      4930
      4918      4930      4933      4934      4918      4930      4933      4935
      4918      4930      4933      4936      4919      4918      4930      4931
      4919      4918      4930      4932      4919      4918      4930      4933
      4920      4918      4930      4931      4920      4918      4930      4932
      4920      4918      4930      4933      4921      4924      4925      4926
      4921      4924      4925      4927      4922      4921      4924      4925
      4923      4921      4924      4925      4924      4925      4927      4928
      4924      4925      4927      4929      4924      4925      4927      4974
      4925      4927      4974      4975      4925      4927      4974      4976
      4925      4927      4974      4977      4926      4925      4927      4928
      4926      4925      4927      4929      4926      4925      4927      4974
      4927      4974      4977      4978      4927      4974      4977      4979
      4927      4974      4977      4980      4928      4927      4974      4975
      4928      4927      4974      4976      4928      4927      4974      4977
      4929      4927      4974      4975      4929      4927      4974      4976
      4929      4927      4974      4977      4930      4933      4936      4937
      4930      4933      4936      4938      4930      4933      4936      4939
      4931      4930      4933      4934      4931      4930      4933      4935
      4931      4930      4933      4936      4932      4930      4933      4934
      4932      4930      4933      4935      4932      4930      4933      4936
      4933      4936      4939      4940      4933      4936      4939      4941
      4933      4936      4939      4942      4934      4933      4936      4937
      4934      4933      4936      4938      4934      4933      4936      4939
      4935      4933      4936      4937      4935      4933      4936      4938
      4935      4933      4936      4939      4936      4939      4942      4943
      4936      4939      4942      4944      4936      4939      4942      4945
      4937      4936      4939      4940      4937      4936      4939      4941
      4937      4936      4939      4942      4938      4936      4939      4940
      4938      4936      4939      4941      4938      4936      4939      4942
      4939      4942      4945      4946      4939      4942      4945      4947
      4939      4942      4945      4948      4940      4939      4942      4943
      4940      4939      4942      4944      4940      4939      4942      4945
      4941      4939      4942      4943      4941      4939      4942      4944
      4941      4939      4942      4945      4942      4945      4948      4949
      4942      4945      4948      4950      4942      4945      4948      4953
      4943      4942      4945      4946      4943      4942      4945      4947
      4943      4942      4945      4948      4944      4942      4945      4946
      4944      4942      4945      4947      4944      4942      4945      4948
      4945      4948      4950      4951      4945      4948      4950      4952
      4945      4948      4950      4953      4945      4948      4953      4950
      4945      4948      4953      4954      4945      4948      4953      4955
      4946      4945      4948      4949      4946      4945      4948      4950
      4946      4945      4948      4953      4947      4945      4948      4949
      4947      4945      4948      4950      4947      4945      4948      4953
      4948      4950      4953      4954      4948      4950      4953      4955
      4948      4953      4950      4951      4948      4953      4950      4952
      4948      4953      4955      4956      4948      4953      4955      4957
      4948      4953      4955      4958      4949      4948      4950      4951
      4949      4948      4950      4952      4949      4948      4950      4953
      4949      4948      4953      4950      4949      4948      4953      4954
      4949      4948      4953      4955      4950      4948      4953      4954
      4950      4948      4953      4955      4950      4953      4955      4956
      4950      4953      4955      4957      4950      4953      4955      4958
      4951      4950      4948      4953      4951      4950      4953      4954
      4951      4950      4953      4955      4952      4950      4948      4953
      4952      4950      4953      4954      4952      4950      4953      4955
      4953      4955      4958      4959      4953      4955      4958      4960
      4953      4955      4958      4961      4954      4953      4955      4956
      4954      4953      4955      4957      4954      4953      4955      4958
      4955      4958      4961      4962      4955      4958      4961      4963
      4955      4958      4961      4964      4956      4955      4958      4959
      4956      4955      4958      4960      4956      4955      4958      4961
      4957      4955      4958      4959      4957      4955      4958      4960
      4957      4955      4958      4961      4958      4961      4964      4965
      4958      4961      4964      4966      4958      4961      4964      4967
      4959      4958      4961      4962      4959      4958      4961      4963
      4959      4958      4961      4964      4960      4958      4961      4962
      4960      4958      4961      4963      4960      4958      4961      4964
      4961      4964      4967      4968      4961      4964      4967      4969
      4961      4964      4967      4970      4962      4961      4964      4965
      4962      4961      4964      4966      4962      4961      4964      4967
      4963      4961      4964      4965      4963      4961      4964      4966
      4963      4961      4964      4967      4964      4967      4970      4971
      4964      4967      4970      4972      4964      4967      4970      4973
      4965      4964      4967      4968      4965      4964      4967      4969
      4965      4964      4967      4970      4966      4964      4967      4968
      4966      4964      4967      4969      4966      4964      4967      4970
      4968      4967      4970      4971      4968      4967      4970      4972
      4968      4967      4970      4973      4969      4967      4970      4971
      4969      4967      4970      4972      4969      4967      4970      4973
      4974      4977      4980      4981      4974      4977      4980      4982
      4974      4977      4980      4983      4975      4974      4977      4978
      4975      4974      4977      4979      4975      4974      4977      4980
      4976      4974      4977      4978      4976      4974      4977      4979
      4976      4974      4977      4980      4977      4980      4983      4984
      4977      4980      4983      4985      4977      4980      4983      4986
      4978      4977      4980      4981      4978      4977      4980      4982
      4978      4977      4980      4983      4979      4977      4980      4981
      4979      4977      4980      4982      4979      4977      4980      4983
      4980      4983      4986      4987      4980      4983      4986      4988
      4980      4983      4986      4989      4981      4980      4983      4984
      4981      4980      4983      4985      4981      4980      4983      4986
      4982      4980      4983      4984      4982      4980      4983      4985
      4982      4980      4983      4986      4983      4986      4989      4990
      4983      4986      4989      4991      4983      4986      4989      4992
      4984      4983      4986      4987      4984      4983      4986      4988
      4984      4983      4986      4989      4985      4983      4986      4987
      4985      4983      4986      4988      4985      4983      4986      4989
      4986      4989      4992      4993      4986      4989      4992      4994
      4986      4989      4992      4995      4987      4986      4989      4990
      4987      4986      4989      4991      4987      4986      4989      4992
      4988      4986      4989      4990      4988      4986      4989      4991
      4988      4986      4989      4992      4989      4992      4995      4996
      4989      4992      4995      4997      4989      4992      4995      4998
      4990      4989      4992      4993      4990      4989      4992      4994
      4990      4989      4992      4995      4991      4989      4992      4993
      4991      4989      4992      4994      4991      4989      4992      4995
      4992      4995      4998      4999      4992      4995      4998      5000
      4992      4995      4998      5001      4993      4992      4995      4996
      4993      4992      4995      4997      4993      4992      4995      4998
      4994      4992      4995      4996      4994      4992      4995      4997
      4994      4992      4995      4998      4995      4998      5001      5002
      4995      4998      5001      5003      4995      4998      5001      5004
      4996      4995      4998      4999      4996      4995      4998      5000
      4996      4995      4998      5001      4997      4995      4998      4999
      4997      4995      4998      5000      4997      4995      4998      5001
      4998      5001      5004      5005      4998      5001      5004      5006
      4998      5001      5004      5007      4999      4998      5001      5002
      4999      4998      5001      5003      4999      4998      5001      5004
      5000      4998      5001      5002      5000      4998      5001      5003
      5000      4998      5001      5004      5001      5004      5007      5008
      5001      5004      5007      5009      5001      5004      5007      5010
      5002      5001      5004      5005      5002      5001      5004      5006
      5002      5001      5004      5007      5003      5001      5004      5005
      5003      5001      5004      5006      5003      5001      5004      5007
      5004      5007      5010      5011      5004      5007      5010      5012
      5004      5007      5010      5013      5005      5004      5007      5008
      5005      5004      5007      5009      5005      5004      5007      5010
      5006      5004      5007      5008      5006      5004      5007      5009
      5006      5004      5007      5010      5008      5007      5010      5011
      5008      5007      5010      5012      5008      5007      5010      5013
      5009      5007      5010      5011      5009      5007      5010      5012
      5009      5007      5010      5013      5014      5018      5021      5022
      5014      5018      5021      5023      5014      5018      5021      5028
      5015      5014      5018      5019      5015      5014      5018      5020
      5015      5014      5018      5021      5016      5014      5018      5019
      5016      5014      5018      5020      5016      5014      5018      5021
      5017      5014      5018      5019      5017      5014      5018      5020
      5017      5014      5018      5021      5018      5021      5028      5024
      5019      5018      5021      5022      5019      5018      5021      5023
      5019      5018      5021      5028      5020      5018      5021      5022
      5020      5018      5021      5023      5020      5018      5021      5028
      5021      5028      5024      5025      5021      5028      5024      5026
      5021      5028      5024      5027      5022      5021      5028      5024
      5023      5021      5028      5024      5024      5027      5029      5030
      5024      5027      5029      5031      5024      5027      5029      5032
      5025      5024      5027      5029      5026      5024      5027      5029
      5027      5029      5032      5033      5027      5029      5032      5034
      5027      5029      5032      5040      5028      5024      5027      5029
      5029      5032      5034      5035      5029      5032      5040      5041
      5029      5032      5040      5042      5029      5032      5040      5043
      5030      5029      5032      5033      5030      5029      5032      5034
      5030      5029      5032      5040      5031      5029      5032      5033
      5031      5029      5032      5034      5031      5029      5032      5040
      5032      5034      5035      5036      5032      5034      5035      5037
      5032      5040      5043      5044      5033      5032      5034      5035
      5033      5032      5040      5041      5033      5032      5040      5042
      5033      5032      5040      5043      5034      5032      5040      5041
      5034      5032      5040      5042      5034      5032      5040      5043
      5034      5035      5037      5038      5034      5035      5037      5039
      5034      5035      5037      5049      5035      5034      5032      5040
      5035      5037      5049      5050      5035      5037      5049      5051
      5035      5037      5049      5052      5036      5035      5037      5038
      5036      5035      5037      5039      5036      5035      5037      5049
      5037      5049      5052      5053      5037      5049      5052      5054
      5037      5049      5052      5055      5038      5037      5049      5050
      5038      5037      5049      5051      5038      5037      5049      5052
      5039      5037      5049      5050      5039      5037      5049      5051
      5039      5037      5049      5052      5040      5043      5044      5045
      5040      5043      5044      5046      5041      5040      5043      5044
      5042      5040      5043      5044      5043      5044      5046      5047
      5043      5044      5046      5048      5043      5044      5046      5093
      5044      5046      5093      5094      5044      5046      5093      5095
      5044      5046      5093      5096      5045      5044      5046      5047
      5045      5044      5046      5048      5045      5044      5046      5093
      5046      5093      5096      5097      5046      5093      5096      5098
      5046      5093      5096      5099      5047      5046      5093      5094
      5047      5046      5093      5095      5047      5046      5093      5096
      5048      5046      5093      5094      5048      5046      5093      5095
      5048      5046      5093      5096      5049      5052      5055      5056
      5049      5052      5055      5057      5049      5052      5055      5058
      5050      5049      5052      5053      5050      5049      5052      5054
      5050      5049      5052      5055      5051      5049      5052      5053
      5051      5049      5052      5054      5051      5049      5052      5055
      5052      5055      5058      5059      5052      5055      5058      5060
      5052      5055      5058      5061      5053      5052      5055      5056
      5053      5052      5055      5057      5053      5052      5055      5058
      5054      5052      5055      5056      5054      5052      5055      5057
      5054      5052      5055      5058      5055      5058      5061      5062
      5055      5058      5061      5063      5055      5058      5061      5064
      5056      5055      5058      5059      5056      5055      5058      5060
      5056      5055      5058      5061      5057      5055      5058      5059
      5057      5055      5058      5060      5057      5055      5058      5061
      5058      5061      5064      5065      5058      5061      5064      5066
      5058      5061      5064      5067      5059      5058      5061      5062
      5059      5058      5061      5063      5059      5058      5061      5064
      5060      5058      5061      5062      5060      5058      5061      5063
      5060      5058      5061      5064      5061      5064      5067      5068
      5061      5064      5067      5069      5061      5064      5067      5072
      5062      5061      5064      5065      5062      5061      5064      5066
      5062      5061      5064      5067      5063      5061      5064      5065
      5063      5061      5064      5066      5063      5061      5064      5067
      5064      5067      5069      5070      5064      5067      5069      5071
      5064      5067      5069      5072      5064      5067      5072      5069
      5064      5067      5072      5073      5064      5067      5072      5074
      5065      5064      5067      5068      5065      5064      5067      5069
      5065      5064      5067      5072      5066      5064      5067      5068
      5066      5064      5067      5069      5066      5064      5067      5072
      5067      5069      5072      5073      5067      5069      5072      5074
      5067      5072      5069      5070      5067      5072      5069      5071
      5067      5072      5074      5075      5067      5072      5074      5076
      5067      5072      5074      5077      5068      5067      5069      5070
      5068      5067      5069      5071      5068      5067      5069      5072
      5068      5067      5072      5069      5068      5067      5072      5073
      5068      5067      5072      5074      5069      5067      5072      5073
      5069      5067      5072      5074      5069      5072      5074      5075
      5069      5072      5074      5076      5069      5072      5074      5077
      5070      5069      5067      5072      5070      5069      5072      5073
      5070      5069      5072      5074      5071      5069      5067      5072
      5071      5069      5072      5073      5071      5069      5072      5074
      5072      5074      5077      5078      5072      5074      5077      5079
      5072      5074      5077      5080      5073      5072      5074      5075
      5073      5072      5074      5076      5073      5072      5074      5077
      5074      5077      5080      5081      5074      5077      5080      5082
      5074      5077      5080      5083      5075      5074      5077      5078
      5075      5074      5077      5079      5075      5074      5077      5080
      5076      5074      5077      5078      5076      5074      5077      5079
      5076      5074      5077      5080      5077      5080      5083      5084
      5077      5080      5083      5085      5077      5080      5083      5086
      5078      5077      5080      5081      5078      5077      5080      5082
      5078      5077      5080      5083      5079      5077      5080      5081
      5079      5077      5080      5082      5079      5077      5080      5083
      5080      5083      5086      5087      5080      5083      5086      5088
      5080      5083      5086      5089      5081      5080      5083      5084
      5081      5080      5083      5085      5081      5080      5083      5086
      5082      5080      5083      5084      5082      5080      5083      5085
      5082      5080      5083      5086      5083      5086      5089      5090
      5083      5086      5089      5091      5083      5086      5089      5092
      5084      5083      5086      5087      5084      5083      5086      5088
      5084      5083      5086      5089      5085      5083      5086      5087
      5085      5083      5086      5088      5085      5083      5086      5089
      5087      5086      5089      5090      5087      5086      5089      5091
      5087      5086      5089      5092      5088      5086      5089      5090
      5088      5086      5089      5091      5088      5086      5089      5092
      5093      5096      5099      5100      5093      5096      5099      5101
      5093      5096      5099      5102      5094      5093      5096      5097
      5094      5093      5096      5098      5094      5093      5096      5099
      5095      5093      5096      5097      5095      5093      5096      5098
      5095      5093      5096      5099      5096      5099      5102      5103
      5096      5099      5102      5104      5096      5099      5102      5105
      5097      5096      5099      5100      5097      5096      5099      5101
      5097      5096      5099      5102      5098      5096      5099      5100
      5098      5096      5099      5101      5098      5096      5099      5102
      5099      5102      5105      5106      5099      5102      5105      5107
      5099      5102      5105      5108      5100      5099      5102      5103
      5100      5099      5102      5104      5100      5099      5102      5105
      5101      5099      5102      5103      5101      5099      5102      5104
      5101      5099      5102      5105      5102      5105      5108      5109
      5102      5105      5108      5110      5102      5105      5108      5111
      5103      5102      5105      5106      5103      5102      5105      5107
      5103      5102      5105      5108      5104      5102      5105      5106
      5104      5102      5105      5107      5104      5102      5105      5108
      5105      5108      5111      5112      5105      5108      5111      5113
      5105      5108      5111      5114      5106      5105      5108      5109
      5106      5105      5108      5110      5106      5105      5108      5111
      5107      5105      5108      5109      5107      5105      5108      5110
      5107      5105      5108      5111      5108      5111      5114      5115
      5108      5111      5114      5116      5108      5111      5114      5117
      5109      5108      5111      5112      5109      5108      5111      5113
      5109      5108      5111      5114      5110      5108      5111      5112
      5110      5108      5111      5113      5110      5108      5111      5114
      5111      5114      5117      5118      5111      5114      5117      5119
      5111      5114      5117      5120      5112      5111      5114      5115
      5112      5111      5114      5116      5112      5111      5114      5117
      5113      5111      5114      5115      5113      5111      5114      5116
      5113      5111      5114      5117      5114      5117      5120      5121
      5114      5117      5120      5122      5114      5117      5120      5123
      5115      5114      5117      5118      5115      5114      5117      5119
      5115      5114      5117      5120      5116      5114      5117      5118
      5116      5114      5117      5119      5116      5114      5117      5120
      5117      5120      5123      5124      5117      5120      5123      5125
      5117      5120      5123      5126      5118      5117      5120      5121
      5118      5117      5120      5122      5118      5117      5120      5123
      5119      5117      5120      5121      5119      5117      5120      5122
      5119      5117      5120      5123      5120      5123      5126      5127
      5120      5123      5126      5128      5120      5123      5126      5129
      5121      5120      5123      5124      5121      5120      5123      5125
      5121      5120      5123      5126      5122      5120      5123      5124
      5122      5120      5123      5125      5122      5120      5123      5126
      5123      5126      5129      5130      5123      5126      5129      5131
      5123      5126      5129      5132      5124      5123      5126      5127
      5124      5123      5126      5128      5124      5123      5126      5129
      5125      5123      5126      5127      5125      5123      5126      5128
      5125      5123      5126      5129      5126      5129      5132      5133
      5126      5129      5132      5134      5126      5129      5132      5135
      5127      5126      5129      5130      5127      5126      5129      5131
      5127      5126      5129      5132      5128      5126      5129      5130
      5128      5126      5129      5131      5128      5126      5129      5132
      5130      5129      5132      5133      5130      5129      5132      5134
      5130      5129      5132      5135      5131      5129      5132      5133
      5131      5129      5132      5134      5131      5129      5132      5135
      5136      5140      5143      5144      5136      5140      5143      5145
      5136      5140      5143      5150      5137      5136      5140      5141
      5137      5136      5140      5142      5137      5136      5140      5143
      5138      5136      5140      5141      5138      5136      5140      5142
      5138      5136      5140      5143      5139      5136      5140      5141
      5139      5136      5140      5142      5139      5136      5140      5143
      5140      5143      5150      5146      5141      5140      5143      5144
      5141      5140      5143      5145      5141      5140      5143      5150
      5142      5140      5143      5144      5142      5140      5143      5145
      5142      5140      5143      5150      5143      5150      5146      5147
      5143      5150      5146      5148      5143      5150      5146      5149
      5144      5143      5150      5146      5145      5143      5150      5146
      5146      5149      5151      5152      5146      5149      5151      5153
      5146      5149      5151      5154      5147      5146      5149      5151
      5148      5146      5149      5151      5149      5151      5154      5155
      5149      5151      5154      5156      5149      5151      5154      5162
      5150      5146      5149      5151      5151      5154      5156      5157
      5151      5154      5162      5163      5151      5154      5162      5164
      5151      5154      5162      5165      5152      5151      5154      5155
      5152      5151      5154      5156      5152      5151      5154      5162
      5153      5151      5154      5155      5153      5151      5154      5156
      5153      5151      5154      5162      5154      5156      5157      5158
      5154      5156      5157      5159      5154      5162      5165      5166
      5155      5154      5156      5157      5155      5154      5162      5163
      5155      5154      5162      5164      5155      5154      5162      5165
      5156      5154      5162      5163      5156      5154      5162      5164
      5156      5154      5162      5165      5156      5157      5159      5160
      5156      5157      5159      5161      5156      5157      5159      5171
      5157      5156      5154      5162      5157      5159      5171      5172
      5157      5159      5171      5173      5157      5159      5171      5174
      5158      5157      5159      5160      5158      5157      5159      5161
      5158      5157      5159      5171      5159      5171      5174      5175
      5159      5171      5174      5176      5159      5171      5174      5177
      5160      5159      5171      5172      5160      5159      5171      5173
      5160      5159      5171      5174      5161      5159      5171      5172
      5161      5159      5171      5173      5161      5159      5171      5174
      5162      5165      5166      5167      5162      5165      5166      5168
      5163      5162      5165      5166      5164      5162      5165      5166
      5165      5166      5168      5169      5165      5166      5168      5170
      5165      5166      5168      5215      5166      5168      5215      5216
      5166      5168      5215      5217      5166      5168      5215      5218
      5167      5166      5168      5169      5167      5166      5168      5170
      5167      5166      5168      5215      5168      5215      5218      5219
      5168      5215      5218      5220      5168      5215      5218      5221
      5169      5168      5215      5216      5169      5168      5215      5217
      5169      5168      5215      5218      5170      5168      5215      5216
      5170      5168      5215      5217      5170      5168      5215      5218
      5171      5174      5177      5178      5171      5174      5177      5179
      5171      5174      5177      5180      5172      5171      5174      5175
      5172      5171      5174      5176      5172      5171      5174      5177
      5173      5171      5174      5175      5173      5171      5174      5176
      5173      5171      5174      5177      5174      5177      5180      5181
      5174      5177      5180      5182      5174      5177      5180      5183
      5175      5174      5177      5178      5175      5174      5177      5179
      5175      5174      5177      5180      5176      5174      5177      5178
      5176      5174      5177      5179      5176      5174      5177      5180
      5177      5180      5183      5184      5177      5180      5183      5185
      5177      5180      5183      5186      5178      5177      5180      5181
      5178      5177      5180      5182      5178      5177      5180      5183
      5179      5177      5180      5181      5179      5177      5180      5182
      5179      5177      5180      5183      5180      5183      5186      5187
      5180      5183      5186      5188      5180      5183      5186      5189
      5181      5180      5183      5184      5181      5180      5183      5185
      5181      5180      5183      5186      5182      5180      5183      5184
      5182      5180      5183      5185      5182      5180      5183      5186
      5183      5186      5189      5190      5183      5186      5189      5191
      5183      5186      5189      5194      5184      5183      5186      5187
      5184      5183      5186      5188      5184      5183      5186      5189
      5185      5183      5186      5187      5185      5183      5186      5188
      5185      5183      5186      5189      5186      5189      5191      5192
      5186      5189      5191      5193      5186      5189      5191      5194
      5186      5189      5194      5191      5186      5189      5194      5195
      5186      5189      5194      5196      5187      5186      5189      5190
      5187      5186      5189      5191      5187      5186      5189      5194
      5188      5186      5189      5190      5188      5186      5189      5191
      5188      5186      5189      5194      5189      5191      5194      5195
      5189      5191      5194      5196      5189      5194      5191      5192
      5189      5194      5191      5193      5189      5194      5196      5197
      5189      5194      5196      5198      5189      5194      5196      5199
      5190      5189      5191      5192      5190      5189      5191      5193
      5190      5189      5191      5194      5190      5189      5194      5191
      5190      5189      5194      5195      5190      5189      5194      5196
      5191      5189      5194      5195      5191      5189      5194      5196
      5191      5194      5196      5197      5191      5194      5196      5198
      5191      5194      5196      5199      5192      5191      5189      5194
      5192      5191      5194      5195      5192      5191      5194      5196
      5193      5191      5189      5194      5193      5191      5194      5195
      5193      5191      5194      5196      5194      5196      5199      5200
      5194      5196      5199      5201      5194      5196      5199      5202
      5195      5194      5196      5197      5195      5194      5196      5198
      5195      5194      5196      5199      5196      5199      5202      5203
      5196      5199      5202      5204      5196      5199      5202      5205
      5197      5196      5199      5200      5197      5196      5199      5201
      5197      5196      5199      5202      5198      5196      5199      5200
      5198      5196      5199      5201      5198      5196      5199      5202
      5199      5202      5205      5206      5199      5202      5205      5207
      5199      5202      5205      5208      5200      5199      5202      5203
      5200      5199      5202      5204      5200      5199      5202      5205
      5201      5199      5202      5203      5201      5199      5202      5204
      5201      5199      5202      5205      5202      5205      5208      5209
      5202      5205      5208      5210      5202      5205      5208      5211
      5203      5202      5205      5206      5203      5202      5205      5207
      5203      5202      5205      5208      5204      5202      5205      5206
      5204      5202      5205      5207      5204      5202      5205      5208
      5205      5208      5211      5212      5205      5208      5211      5213
      5205      5208      5211      5214      5206      5205      5208      5209
      5206      5205      5208      5210      5206      5205      5208      5211
      5207      5205      5208      5209      5207      5205      5208      5210
      5207      5205      5208      5211      5209      5208      5211      5212
      5209      5208      5211      5213      5209      5208      5211      5214
      5210      5208      5211      5212      5210      5208      5211      5213
      5210      5208      5211      5214      5215      5218      5221      5222
      5215      5218      5221      5223      5215      5218      5221      5224
      5216      5215      5218      5219      5216      5215      5218      5220
      5216      5215      5218      5221      5217      5215      5218      5219
      5217      5215      5218      5220      5217      5215      5218      5221
      5218      5221      5224      5225      5218      5221      5224      5226
      5218      5221      5224      5227      5219      5218      5221      5222
      5219      5218      5221      5223      5219      5218      5221      5224
      5220      5218      5221      5222      5220      5218      5221      5223
      5220      5218      5221      5224      5221      5224      5227      5228
      5221      5224      5227      5229      5221      5224      5227      5230
      5222      5221      5224      5225      5222      5221      5224      5226
      5222      5221      5224      5227      5223      5221      5224      5225
      5223      5221      5224      5226      5223      5221      5224      5227
      5224      5227      5230      5231      5224      5227      5230      5232
      5224      5227      5230      5233      5225      5224      5227      5228
      5225      5224      5227      5229      5225      5224      5227      5230
      5226      5224      5227      5228      5226      5224      5227      5229
      5226      5224      5227      5230      5227      5230      5233      5234
      5227      5230      5233      5235      5227      5230      5233      5236
      5228      5227      5230      5231      5228      5227      5230      5232
      5228      5227      5230      5233      5229      5227      5230      5231
      5229      5227      5230      5232      5229      5227      5230      5233
      5230      5233      5236      5237      5230      5233      5236      5238
      5230      5233      5236      5239      5231      5230      5233      5234
      5231      5230      5233      5235      5231      5230      5233      5236
      5232      5230      5233      5234      5232      5230      5233      5235
      5232      5230      5233      5236      5233      5236      5239      5240
      5233      5236      5239      5241      5233      5236      5239      5242
      5234      5233      5236      5237      5234      5233      5236      5238
      5234      5233      5236      5239      5235      5233      5236      5237
      5235      5233      5236      5238      5235      5233      5236      5239
      5236      5239      5242      5243      5236      5239      5242      5244
      5236      5239      5242      5245      5237      5236      5239      5240
      5237      5236      5239      5241      5237      5236      5239      5242
      5238      5236      5239      5240      5238      5236      5239      5241
      5238      5236      5239      5242      5239      5242      5245      5246
      5239      5242      5245      5247      5239      5242      5245      5248
      5240      5239      5242      5243      5240      5239      5242      5244
      5240      5239      5242      5245      5241      5239      5242      5243
      5241      5239      5242      5244      5241      5239      5242      5245
      5242      5245      5248      5249      5242      5245      5248      5250
      5242      5245      5248      5251      5243      5242      5245      5246
      5243      5242      5245      5247      5243      5242      5245      5248
      5244      5242      5245      5246      5244      5242      5245      5247
      5244      5242      5245      5248      5245      5248      5251      5252
      5245      5248      5251      5253      5245      5248      5251      5254
      5246      5245      5248      5249      5246      5245      5248      5250
      5246      5245      5248      5251      5247      5245      5248      5249
      5247      5245      5248      5250      5247      5245      5248      5251
      5249      5248      5251      5252      5249      5248      5251      5253
      5249      5248      5251      5254      5250      5248      5251      5252
      5250      5248      5251      5253      5250      5248      5251      5254
      5255      5259      5262      5263      5255      5259      5262      5264
      5255      5259      5262      5269      5256      5255      5259      5260
      5256      5255      5259      5261      5256      5255      5259      5262
      5257      5255      5259      5260      5257      5255      5259      5261
      5257      5255      5259      5262      5258      5255      5259      5260
      5258      5255      5259      5261      5258      5255      5259      5262
      5259      5262      5269      5265      5260      5259      5262      5263
      5260      5259      5262      5264      5260      5259      5262      5269
      5261      5259      5262      5263      5261      5259      5262      5264
      5261      5259      5262      5269      5262      5269      5265      5266
      5262      5269      5265      5267      5262      5269      5265      5268
      5263      5262      5269      5265      5264      5262      5269      5265
      5265      5268      5270      5271      5265      5268      5270      5272
      5265      5268      5270      5273      5266      5265      5268      5270
      5267      5265      5268      5270      5268      5270      5273      5274
      5268      5270      5273      5275      5268      5270      5273      5281
      5269      5265      5268      5270      5270      5273      5275      5276
      5270      5273      5281      5282      5270      5273      5281      5283
      5270      5273      5281      5284      5271      5270      5273      5274
      5271      5270      5273      5275      5271      5270      5273      5281
      5272      5270      5273      5274      5272      5270      5273      5275
      5272      5270      5273      5281      5273      5275      5276      5277
      5273      5275      5276      5278      5273      5281      5284      5285
      5274      5273      5275      5276      5274      5273      5281      5282
      5274      5273      5281      5283      5274      5273      5281      5284
      5275      5273      5281      5282      5275      5273      5281      5283
      5275      5273      5281      5284      5275      5276      5278      5279
      5275      5276      5278      5280      5275      5276      5278      5290
      5276      5275      5273      5281      5276      5278      5290      5291
      5276      5278      5290      5292      5276      5278      5290      5293
      5277      5276      5278      5279      5277      5276      5278      5280
      5277      5276      5278      5290      5278      5290      5293      5294
      5278      5290      5293      5295      5278      5290      5293      5296
      5279      5278      5290      5291      5279      5278      5290      5292
      5279      5278      5290      5293      5280      5278      5290      5291
      5280      5278      5290      5292      5280      5278      5290      5293
      5281      5284      5285      5286      5281      5284      5285      5287
      5282      5281      5284      5285      5283      5281      5284      5285
      5284      5285      5287      5288      5284      5285      5287      5289
      5284      5285      5287      5334      5285      5287      5334      5335
      5285      5287      5334      5336      5285      5287      5334      5337
      5286      5285      5287      5288      5286      5285      5287      5289
      5286      5285      5287      5334      5287      5334      5337      5338
      5287      5334      5337      5339      5287      5334      5337      5340
      5288      5287      5334      5335      5288      5287      5334      5336
      5288      5287      5334      5337      5289      5287      5334      5335
      5289      5287      5334      5336      5289      5287      5334      5337
      5290      5293      5296      5297      5290      5293      5296      5298
      5290      5293      5296      5299      5291      5290      5293      5294
      5291      5290      5293      5295      5291      5290      5293      5296
      5292      5290      5293      5294      5292      5290      5293      5295
      5292      5290      5293      5296      5293      5296      5299      5300
      5293      5296      5299      5301      5293      5296      5299      5302
      5294      5293      5296      5297      5294      5293      5296      5298
      5294      5293      5296      5299      5295      5293      5296      5297
      5295      5293      5296      5298      5295      5293      5296      5299
      5296      5299      5302      5303      5296      5299      5302      5304
      5296      5299      5302      5305      5297      5296      5299      5300
      5297      5296      5299      5301      5297      5296      5299      5302
      5298      5296      5299      5300      5298      5296      5299      5301
      5298      5296      5299      5302      5299      5302      5305      5306
      5299      5302      5305      5307      5299      5302      5305      5308
      5300      5299      5302      5303      5300      5299      5302      5304
      5300      5299      5302      5305      5301      5299      5302      5303
      5301      5299      5302      5304      5301      5299      5302      5305
      5302      5305      5308      5309      5302      5305      5308      5310
      5302      5305      5308      5313      5303      5302      5305      5306
      5303      5302      5305      5307      5303      5302      5305      5308
      5304      5302      5305      5306      5304      5302      5305      5307
      5304      5302      5305      5308      5305      5308      5310      5311
      5305      5308      5310      5312      5305      5308      5310      5313
      5305      5308      5313      5310      5305      5308      5313      5314
      5305      5308      5313      5315      5306      5305      5308      5309
      5306      5305      5308      5310      5306      5305      5308      5313
      5307      5305      5308      5309      5307      5305      5308      5310
      5307      5305      5308      5313      5308      5310      5313      5314
      5308      5310      5313      5315      5308      5313      5310      5311
      5308      5313      5310      5312      5308      5313      5315      5316
      5308      5313      5315      5317      5308      5313      5315      5318
      5309      5308      5310      5311      5309      5308      5310      5312
      5309      5308      5310      5313      5309      5308      5313      5310
      5309      5308      5313      5314      5309      5308      5313      5315
      5310      5308      5313      5314      5310      5308      5313      5315
      5310      5313      5315      5316      5310      5313      5315      5317
      5310      5313      5315      5318      5311      5310      5308      5313
      5311      5310      5313      5314      5311      5310      5313      5315
      5312      5310      5308      5313      5312      5310      5313      5314
      5312      5310      5313      5315      5313      5315      5318      5319
      5313      5315      5318      5320      5313      5315      5318      5321
      5314      5313      5315      5316      5314      5313      5315      5317
      5314      5313      5315      5318      5315      5318      5321      5322
      5315      5318      5321      5323      5315      5318      5321      5324
      5316      5315      5318      5319      5316      5315      5318      5320
      5316      5315      5318      5321      5317      5315      5318      5319
      5317      5315      5318      5320      5317      5315      5318      5321
      5318      5321      5324      5325      5318      5321      5324      5326
      5318      5321      5324      5327      5319      5318      5321      5322
      5319      5318      5321      5323      5319      5318      5321      5324
      5320      5318      5321      5322      5320      5318      5321      5323
      5320      5318      5321      5324      5321      5324      5327      5328
      5321      5324      5327      5329      5321      5324      5327      5330
      5322      5321      5324      5325      5322      5321      5324      5326
      5322      5321      5324      5327      5323      5321      5324      5325
      5323      5321      5324      5326      5323      5321      5324      5327
      5324      5327      5330      5331      5324      5327      5330      5332
      5324      5327      5330      5333      5325      5324      5327      5328
      5325      5324      5327      5329      5325      5324      5327      5330
      5326      5324      5327      5328      5326      5324      5327      5329
      5326      5324      5327      5330      5328      5327      5330      5331
      5328      5327      5330      5332      5328      5327      5330      5333
      5329      5327      5330      5331      5329      5327      5330      5332
      5329      5327      5330      5333      5334      5337      5340      5341
      5334      5337      5340      5342      5334      5337      5340      5343
      5335      5334      5337      5338      5335      5334      5337      5339
      5335      5334      5337      5340      5336      5334      5337      5338
      5336      5334      5337      5339      5336      5334      5337      5340
      5337      5340      5343      5344      5337      5340      5343      5345
      5337      5340      5343      5346      5338      5337      5340      5341
      5338      5337      5340      5342      5338      5337      5340      5343
      5339      5337      5340      5341      5339      5337      5340      5342
      5339      5337      5340      5343      5340      5343      5346      5347
      5340      5343      5346      5348      5340      5343      5346      5349
      5341      5340      5343      5344      5341      5340      5343      5345
      5341      5340      5343      5346      5342      5340      5343      5344
      5342      5340      5343      5345      5342      5340      5343      5346
      5343      5346      5349      5350      5343      5346      5349      5351
      5343      5346      5349      5352      5344      5343      5346      5347
      5344      5343      5346      5348      5344      5343      5346      5349
      5345      5343      5346      5347      5345      5343      5346      5348
      5345      5343      5346      5349      5346      5349      5352      5353
      5346      5349      5352      5354      5346      5349      5352      5355
      5347      5346      5349      5350      5347      5346      5349      5351
      5347      5346      5349      5352      5348      5346      5349      5350
      5348      5346      5349      5351      5348      5346      5349      5352
      5349      5352      5355      5356      5349      5352      5355      5357
      5349      5352      5355      5358      5350      5349      5352      5353
      5350      5349      5352      5354      5350      5349      5352      5355
      5351      5349      5352      5353      5351      5349      5352      5354
      5351      5349      5352      5355      5352      5355      5358      5359
      5352      5355      5358      5360      5352      5355      5358      5361
      5353      5352      5355      5356      5353      5352      5355      5357
      5353      5352      5355      5358      5354      5352      5355      5356
      5354      5352      5355      5357      5354      5352      5355      5358
      5355      5358      5361      5362      5355      5358      5361      5363
      5355      5358      5361      5364      5356      5355      5358      5359
      5356      5355      5358      5360      5356      5355      5358      5361
      5357      5355      5358      5359      5357      5355      5358      5360
      5357      5355      5358      5361      5358      5361      5364      5365
      5358      5361      5364      5366      5358      5361      5364      5367
      5359      5358      5361      5362      5359      5358      5361      5363
      5359      5358      5361      5364      5360      5358      5361      5362
      5360      5358      5361      5363      5360      5358      5361      5364
      5361      5364      5367      5368      5361      5364      5367      5369
      5361      5364      5367      5370      5362      5361      5364      5365
      5362      5361      5364      5366      5362      5361      5364      5367
      5363      5361      5364      5365      5363      5361      5364      5366
      5363      5361      5364      5367      5364      5367      5370      5371
      5364      5367      5370      5372      5364      5367      5370      5373
      5365      5364      5367      5368      5365      5364      5367      5369
      5365      5364      5367      5370      5366      5364      5367      5368
      5366      5364      5367      5369      5366      5364      5367      5370
      5367      5370      5373      5374      5367      5370      5373      5375
      5367      5370      5373      5376      5368      5367      5370      5371
      5368      5367      5370      5372      5368      5367      5370      5373
      5369      5367      5370      5371      5369      5367      5370      5372
      5369      5367      5370      5373      5371      5370      5373      5374
      5371      5370      5373      5375      5371      5370      5373      5376
      5372      5370      5373      5374      5372      5370      5373      5375
      5372      5370      5373      5376      5377      5381      5384      5385
      5377      5381      5384      5386      5377      5381      5384      5391
      5378      5377      5381      5382      5378      5377      5381      5383
      5378      5377      5381      5384      5379      5377      5381      5382
      5379      5377      5381      5383      5379      5377      5381      5384
      5380      5377      5381      5382      5380      5377      5381      5383
      5380      5377      5381      5384      5381      5384      5391      5387
      5382      5381      5384      5385      5382      5381      5384      5386
      5382      5381      5384      5391      5383      5381      5384      5385
      5383      5381      5384      5386      5383      5381      5384      5391
      5384      5391      5387      5388      5384      5391      5387      5389
      5384      5391      5387      5390      5385      5384      5391      5387
      5386      5384      5391      5387      5387      5390      5392      5393
      5387      5390      5392      5394      5387      5390      5392      5395
      5388      5387      5390      5392      5389      5387      5390      5392
      5390      5392      5395      5396      5390      5392      5395      5397
      5390      5392      5395      5403      5391      5387      5390      5392
      5392      5395      5397      5398      5392      5395      5403      5404
      5392      5395      5403      5405      5392      5395      5403      5406
      5393      5392      5395      5396      5393      5392      5395      5397
      5393      5392      5395      5403      5394      5392      5395      5396
      5394      5392      5395      5397      5394      5392      5395      5403
      5395      5397      5398      5399      5395      5397      5398      5400
      5395      5403      5406      5407      5396      5395      5397      5398
      5396      5395      5403      5404      5396      5395      5403      5405
      5396      5395      5403      5406      5397      5395      5403      5404
      5397      5395      5403      5405      5397      5395      5403      5406
      5397      5398      5400      5401      5397      5398      5400      5402
      5397      5398      5400      5412      5398      5397      5395      5403
      5398      5400      5412      5413      5398      5400      5412      5414
      5398      5400      5412      5415      5399      5398      5400      5401
      5399      5398      5400      5402      5399      5398      5400      5412
      5400      5412      5415      5416      5400      5412      5415      5417
      5400      5412      5415      5418      5401      5400      5412      5413
      5401      5400      5412      5414      5401      5400      5412      5415
      5402      5400      5412      5413      5402      5400      5412      5414
      5402      5400      5412      5415      5403      5406      5407      5408
      5403      5406      5407      5409      5404      5403      5406      5407
      5405      5403      5406      5407      5406      5407      5409      5410
      5406      5407      5409      5411      5406      5407      5409      5456
      5407      5409      5456      5457      5407      5409      5456      5458
      5407      5409      5456      5459      5408      5407      5409      5410
      5408      5407      5409      5411      5408      5407      5409      5456
      5409      5456      5459      5460      5409      5456      5459      5461
      5409      5456      5459      5462      5410      5409      5456      5457
      5410      5409      5456      5458      5410      5409      5456      5459
      5411      5409      5456      5457      5411      5409      5456      5458
      5411      5409      5456      5459      5412      5415      5418      5419
      5412      5415      5418      5420      5412      5415      5418      5421
      5413      5412      5415      5416      5413      5412      5415      5417
      5413      5412      5415      5418      5414      5412      5415      5416
      5414      5412      5415      5417      5414      5412      5415      5418
      5415      5418      5421      5422      5415      5418      5421      5423
      5415      5418      5421      5424      5416      5415      5418      5419
      5416      5415      5418      5420      5416      5415      5418      5421
      5417      5415      5418      5419      5417      5415      5418      5420
      5417      5415      5418      5421      5418      5421      5424      5425
      5418      5421      5424      5426      5418      5421      5424      5427
      5419      5418      5421      5422      5419      5418      5421      5423
      5419      5418      5421      5424      5420      5418      5421      5422
      5420      5418      5421      5423      5420      5418      5421      5424
      5421      5424      5427      5428      5421      5424      5427      5429
      5421      5424      5427      5430      5422      5421      5424      5425
      5422      5421      5424      5426      5422      5421      5424      5427
      5423      5421      5424      5425      5423      5421      5424      5426
      5423      5421      5424      5427      5424      5427      5430      5431
      5424      5427      5430      5432      5424      5427      5430      5435
      5425      5424      5427      5428      5425      5424      5427      5429
      5425      5424      5427      5430      5426      5424      5427      5428
      5426      5424      5427      5429      5426      5424      5427      5430
      5427      5430      5432      5433      5427      5430      5432      5434
      5427      5430      5432      5435      5427      5430      5435      5432
      5427      5430      5435      5436      5427      5430      5435      5437
      5428      5427      5430      5431      5428      5427      5430      5432
      5428      5427      5430      5435      5429      5427      5430      5431
      5429      5427      5430      5432      5429      5427      5430      5435
      5430      5432      5435      5436      5430      5432      5435      5437
      5430      5435      5432      5433      5430      5435      5432      5434
      5430      5435      5437      5438      5430      5435      5437      5439
      5430      5435      5437      5440      5431      5430      5432      5433
      5431      5430      5432      5434      5431      5430      5432      5435
      5431      5430      5435      5432      5431      5430      5435      5436
      5431      5430      5435      5437      5432      5430      5435      5436
      5432      5430      5435      5437      5432      5435      5437      5438
      5432      5435      5437      5439      5432      5435      5437      5440
      5433      5432      5430      5435      5433      5432      5435      5436
      5433      5432      5435      5437      5434      5432      5430      5435
      5434      5432      5435      5436      5434      5432      5435      5437
      5435      5437      5440      5441      5435      5437      5440      5442
      5435      5437      5440      5443      5436      5435      5437      5438
      5436      5435      5437      5439      5436      5435      5437      5440
      5437      5440      5443      5444      5437      5440      5443      5445
      5437      5440      5443      5446      5438      5437      5440      5441
      5438      5437      5440      5442      5438      5437      5440      5443
      5439      5437      5440      5441      5439      5437      5440      5442
      5439      5437      5440      5443      5440      5443      5446      5447
      5440      5443      5446      5448      5440      5443      5446      5449
      5441      5440      5443      5444      5441      5440      5443      5445
      5441      5440      5443      5446      5442      5440      5443      5444
      5442      5440      5443      5445      5442      5440      5443      5446
      5443      5446      5449      5450      5443      5446      5449      5451
      5443      5446      5449      5452      5444      5443      5446      5447
      5444      5443      5446      5448      5444      5443      5446      5449
      5445      5443      5446      5447      5445      5443      5446      5448
      5445      5443      5446      5449      5446      5449      5452      5453
      5446      5449      5452      5454      5446      5449      5452      5455
      5447      5446      5449      5450      5447      5446      5449      5451
      5447      5446      5449      5452      5448      5446      5449      5450
      5448      5446      5449      5451      5448      5446      5449      5452
      5450      5449      5452      5453      5450      5449      5452      5454
      5450      5449      5452      5455      5451      5449      5452      5453
      5451      5449      5452      5454      5451      5449      5452      5455
      5456      5459      5462      5463      5456      5459      5462      5464
      5456      5459      5462      5465      5457      5456      5459      5460
      5457      5456      5459      5461      5457      5456      5459      5462
      5458      5456      5459      5460      5458      5456      5459      5461
      5458      5456      5459      5462      5459      5462      5465      5466
      5459      5462      5465      5467      5459      5462      5465      5468
      5460      5459      5462      5463      5460      5459      5462      5464
      5460      5459      5462      5465      5461      5459      5462      5463
      5461      5459      5462      5464      5461      5459      5462      5465
      5462      5465      5468      5469      5462      5465      5468      5470
      5462      5465      5468      5471      5463      5462      5465      5466
      5463      5462      5465      5467      5463      5462      5465      5468
      5464      5462      5465      5466      5464      5462      5465      5467
      5464      5462      5465      5468      5465      5468      5471      5472
      5465      5468      5471      5473      5465      5468      5471      5474
      5466      5465      5468      5469      5466      5465      5468      5470
      5466      5465      5468      5471      5467      5465      5468      5469
      5467      5465      5468      5470      5467      5465      5468      5471
      5468      5471      5474      5475      5468      5471      5474      5476
      5468      5471      5474      5477      5469      5468      5471      5472
      5469      5468      5471      5473      5469      5468      5471      5474
      5470      5468      5471      5472      5470      5468      5471      5473
      5470      5468      5471      5474      5471      5474      5477      5478
      5471      5474      5477      5479      5471      5474      5477      5480
      5472      5471      5474      5475      5472      5471      5474      5476
      5472      5471      5474      5477      5473      5471      5474      5475
      5473      5471      5474      5476      5473      5471      5474      5477
      5474      5477      5480      5481      5474      5477      5480      5482
      5474      5477      5480      5483      5475      5474      5477      5478
      5475      5474      5477      5479      5475      5474      5477      5480
      5476      5474      5477      5478      5476      5474      5477      5479
      5476      5474      5477      5480      5477      5480      5483      5484
      5477      5480      5483      5485      5477      5480      5483      5486
      5478      5477      5480      5481      5478      5477      5480      5482
      5478      5477      5480      5483      5479      5477      5480      5481
      5479      5477      5480      5482      5479      5477      5480      5483
      5480      5483      5486      5487      5480      5483      5486      5488
      5480      5483      5486      5489      5481      5480      5483      5484
      5481      5480      5483      5485      5481      5480      5483      5486
      5482      5480      5483      5484      5482      5480      5483      5485
      5482      5480      5483      5486      5483      5486      5489      5490
      5483      5486      5489      5491      5483      5486      5489      5492
      5484      5483      5486      5487      5484      5483      5486      5488
      5484      5483      5486      5489      5485      5483      5486      5487
      5485      5483      5486      5488      5485      5483      5486      5489
      5486      5489      5492      5493      5486      5489      5492      5494
      5486      5489      5492      5495      5487      5486      5489      5490
      5487      5486      5489      5491      5487      5486      5489      5492
      5488      5486      5489      5490      5488      5486      5489      5491
      5488      5486      5489      5492      5489      5492      5495      5496
      5489      5492      5495      5497      5489      5492      5495      5498
      5490      5489      5492      5493      5490      5489      5492      5494
      5490      5489      5492      5495      5491      5489      5492      5493
      5491      5489      5492      5494      5491      5489      5492      5495
      5493      5492      5495      5496      5493      5492      5495      5497
      5493      5492      5495      5498      5494      5492      5495      5496
      5494      5492      5495      5497      5494      5492      5495      5498
      5499      5503      5506      5507      5499      5503      5506      5508
      5499      5503      5506      5513      5500      5499      5503      5504
      5500      5499      5503      5505      5500      5499      5503      5506
      5501      5499      5503      5504      5501      5499      5503      5505
      5501      5499      5503      5506      5502      5499      5503      5504
      5502      5499      5503      5505      5502      5499      5503      5506
      5503      5506      5513      5509      5504      5503      5506      5507
      5504      5503      5506      5508      5504      5503      5506      5513
      5505      5503      5506      5507      5505      5503      5506      5508
      5505      5503      5506      5513      5506      5513      5509      5510
      5506      5513      5509      5511      5506      5513      5509      5512
      5507      5506      5513      5509      5508      5506      5513      5509
      5509      5512      5514      5515      5509      5512      5514      5516
      5509      5512      5514      5517      5510      5509      5512      5514
      5511      5509      5512      5514      5512      5514      5517      5518
      5512      5514      5517      5519      5512      5514      5517      5525
      5513      5509      5512      5514      5514      5517      5519      5520
      5514      5517      5525      5526      5514      5517      5525      5527
      5514      5517      5525      5528      5515      5514      5517      5518
      5515      5514      5517      5519      5515      5514      5517      5525
      5516      5514      5517      5518      5516      5514      5517      5519
      5516      5514      5517      5525      5517      5519      5520      5521
      5517      5519      5520      5522      5517      5525      5528      5529
      5518      5517      5519      5520      5518      5517      5525      5526
      5518      5517      5525      5527      5518      5517      5525      5528
      5519      5517      5525      5526      5519      5517      5525      5527
      5519      5517      5525      5528      5519      5520      5522      5523
      5519      5520      5522      5524      5519      5520      5522      5534
      5520      5519      5517      5525      5520      5522      5534      5535
      5520      5522      5534      5536      5520      5522      5534      5537
      5521      5520      5522      5523      5521      5520      5522      5524
      5521      5520      5522      5534      5522      5534      5537      5538
      5522      5534      5537      5539      5522      5534      5537      5540
      5523      5522      5534      5535      5523      5522      5534      5536
      5523      5522      5534      5537      5524      5522      5534      5535
      5524      5522      5534      5536      5524      5522      5534      5537
      5525      5528      5529      5530      5525      5528      5529      5531
      5526      5525      5528      5529      5527      5525      5528      5529
      5528      5529      5531      5532      5528      5529      5531      5533
      5528      5529      5531      5578      5529      5531      5578      5579
      5529      5531      5578      5580      5529      5531      5578      5581
      5530      5529      5531      5532      5530      5529      5531      5533
      5530      5529      5531      5578      5531      5578      5581      5582
      5531      5578      5581      5583      5531      5578      5581      5584
      5532      5531      5578      5579      5532      5531      5578      5580
      5532      5531      5578      5581      5533      5531      5578      5579
      5533      5531      5578      5580      5533      5531      5578      5581
      5534      5537      5540      5541      5534      5537      5540      5542
      5534      5537      5540      5543      5535      5534      5537      5538
      5535      5534      5537      5539      5535      5534      5537      5540
      5536      5534      5537      5538      5536      5534      5537      5539
      5536      5534      5537      5540      5537      5540      5543      5544
      5537      5540      5543      5545      5537      5540      5543      5546
      5538      5537      5540      5541      5538      5537      5540      5542
      5538      5537      5540      5543      5539      5537      5540      5541
      5539      5537      5540      5542      5539      5537      5540      5543
      5540      5543      5546      5547      5540      5543      5546      5548
      5540      5543      5546      5549      5541      5540      5543      5544
      5541      5540      5543      5545      5541      5540      5543      5546
      5542      5540      5543      5544      5542      5540      5543      5545
      5542      5540      5543      5546      5543      5546      5549      5550
      5543      5546      5549      5551      5543      5546      5549      5552
      5544      5543      5546      5547      5544      5543      5546      5548
      5544      5543      5546      5549      5545      5543      5546      5547
      5545      5543      5546      5548      5545      5543      5546      5549
      5546      5549      5552      5553      5546      5549      5552      5554
      5546      5549      5552      5557      5547      5546      5549      5550
      5547      5546      5549      5551      5547      5546      5549      5552
      5548      5546      5549      5550      5548      5546      5549      5551
      5548      5546      5549      5552      5549      5552      5554      5555
      5549      5552      5554      5556      5549      5552      5554      5557
      5549      5552      5557      5554      5549      5552      5557      5558
      5549      5552      5557      5559      5550      5549      5552      5553
      5550      5549      5552      5554      5550      5549      5552      5557
      5551      5549      5552      5553      5551      5549      5552      5554
      5551      5549      5552      5557      5552      5554      5557      5558
      5552      5554      5557      5559      5552      5557      5554      5555
      5552      5557      5554      5556      5552      5557      5559      5560
      5552      5557      5559      5561      5552      5557      5559      5562
      5553      5552      5554      5555      5553      5552      5554      5556
      5553      5552      5554      5557      5553      5552      5557      5554
      5553      5552      5557      5558      5553      5552      5557      5559
      5554      5552      5557      5558      5554      5552      5557      5559
      5554      5557      5559      5560      5554      5557      5559      5561
      5554      5557      5559      5562      5555      5554      5552      5557
      5555      5554      5557      5558      5555      5554      5557      5559
      5556      5554      5552      5557      5556      5554      5557      5558
      5556      5554      5557      5559      5557      5559      5562      5563
      5557      5559      5562      5564      5557      5559      5562      5565
      5558      5557      5559      5560      5558      5557      5559      5561
      5558      5557      5559      5562      5559      5562      5565      5566
      5559      5562      5565      5567      5559      5562      5565      5568
      5560      5559      5562      5563      5560      5559      5562      5564
      5560      5559      5562      5565      5561      5559      5562      5563
      5561      5559      5562      5564      5561      5559      5562      5565
      5562      5565      5568      5569      5562      5565      5568      5570
      5562      5565      5568      5571      5563      5562      5565      5566
      5563      5562      5565      5567      5563      5562      5565      5568
      5564      5562      5565      5566      5564      5562      5565      5567
      5564      5562      5565      5568      5565      5568      5571      5572
      5565      5568      5571      5573      5565      5568      5571      5574
      5566      5565      5568      5569      5566      5565      5568      5570
      5566      5565      5568      5571      5567      5565      5568      5569
      5567      5565      5568      5570      5567      5565      5568      5571
      5568      5571      5574      5575      5568      5571      5574      5576
      5568      5571      5574      5577      5569      5568      5571      5572
      5569      5568      5571      5573      5569      5568      5571      5574
      5570      5568      5571      5572      5570      5568      5571      5573
      5570      5568      5571      5574      5572      5571      5574      5575
      5572      5571      5574      5576      5572      5571      5574      5577
      5573      5571      5574      5575      5573      5571      5574      5576
      5573      5571      5574      5577      5578      5581      5584      5585
      5578      5581      5584      5586      5578      5581      5584      5587
      5579      5578      5581      5582      5579      5578      5581      5583
      5579      5578      5581      5584      5580      5578      5581      5582
      5580      5578      5581      5583      5580      5578      5581      5584
      5581      5584      5587      5588      5581      5584      5587      5589
      5581      5584      5587      5590      5582      5581      5584      5585
      5582      5581      5584      5586      5582      5581      5584      5587
      5583      5581      5584      5585      5583      5581      5584      5586
      5583      5581      5584      5587      5584      5587      5590      5591
      5584      5587      5590      5592      5584      5587      5590      5593
      5585      5584      5587      5588      5585      5584      5587      5589
      5585      5584      5587      5590      5586      5584      5587      5588
      5586      5584      5587      5589      5586      5584      5587      5590
      5587      5590      5593      5594      5587      5590      5593      5595
      5587      5590      5593      5596      5588      5587      5590      5591
      5588      5587      5590      5592      5588      5587      5590      5593
      5589      5587      5590      5591      5589      5587      5590      5592
      5589      5587      5590      5593      5590      5593      5596      5597
      5590      5593      5596      5598      5590      5593      5596      5599
      5591      5590      5593      5594      5591      5590      5593      5595
      5591      5590      5593      5596      5592      5590      5593      5594
      5592      5590      5593      5595      5592      5590      5593      5596
      5593      5596      5599      5600      5593      5596      5599      5601
      5593      5596      5599      5602      5594      5593      5596      5597
      5594      5593      5596      5598      5594      5593      5596      5599
      5595      5593      5596      5597      5595      5593      5596      5598
      5595      5593      5596      5599      5596      5599      5602      5603
      5596      5599      5602      5604      5596      5599      5602      5605
      5597      5596      5599      5600      5597      5596      5599      5601
      5597      5596      5599      5602      5598      5596      5599      5600
      5598      5596      5599      5601      5598      5596      5599      5602
      5599      5602      5605      5606      5599      5602      5605      5607
      5599      5602      5605      5608      5600      5599      5602      5603
      5600      5599      5602      5604      5600      5599      5602      5605
      5601      5599      5602      5603      5601      5599      5602      5604
      5601      5599      5602      5605      5602      5605      5608      5609
      5602      5605      5608      5610      5602      5605      5608      5611
      5603      5602      5605      5606      5603      5602      5605      5607
      5603      5602      5605      5608      5604      5602      5605      5606
      5604      5602      5605      5607      5604      5602      5605      5608
      5605      5608      5611      5612      5605      5608      5611      5613
      5605      5608      5611      5614      5606      5605      5608      5609
      5606      5605      5608      5610      5606      5605      5608      5611
      5607      5605      5608      5609      5607      5605      5608      5610
      5607      5605      5608      5611      5608      5611      5614      5615
      5608      5611      5614      5616      5608      5611      5614      5617
      5609      5608      5611      5612      5609      5608      5611      5613
      5609      5608      5611      5614      5610      5608      5611      5612
      5610      5608      5611      5613      5610      5608      5611      5614
      5611      5614      5617      5618      5611      5614      5617      5619
      5611      5614      5617      5620      5612      5611      5614      5615
      5612      5611      5614      5616      5612      5611      5614      5617
      5613      5611      5614      5615      5613      5611      5614      5616
      5613      5611      5614      5617      5615      5614      5617      5618
      5615      5614      5617      5619      5615      5614      5617      5620
      5616      5614      5617      5618      5616      5614      5617      5619
      5616      5614      5617      5620      5621      5626      5628      5629
      5621      5626      5630      5631      5621      5626      5630      5632
      5621      5626      5630      5637      5622      5621      5624      5625
      5622      5621      5626      5627      5622      5621      5626      5628
      5622      5621      5626      5630      5623      5621      5624      5625
      5623      5621      5626      5627      5623      5621      5626      5628
      5623      5621      5626      5630      5624      5621      5626      5627
      5624      5621      5626      5628      5624      5621      5626      5630
      5625      5624      5621      5626      5626      5630      5637      5633
      5627      5626      5628      5629      5627      5626      5630      5631
      5627      5626      5630      5632      5627      5626      5630      5637
      5628      5626      5630      5631      5628      5626      5630      5632
      5628      5626      5630      5637      5629      5628      5626      5630
      5630      5637      5633      5634      5630      5637      5633      5635
      5630      5637      5633      5636      5631      5630      5637      5633
      5632      5630      5637      5633      5633      5636      5638      5639
      5633      5636      5638      5640      5633      5636      5638      5641
      5634      5633      5636      5638      5635      5633      5636      5638
      5636      5638      5641      5642      5636      5638      5641      5643
      5636      5638      5641      5649      5637      5633      5636      5638
      5638      5641      5643      5644      5638      5641      5649      5650
      5638      5641      5649      5651      5638      5641      5649      5652
      5639      5638      5641      5642      5639      5638      5641      5643
      5639      5638      5641      5649      5640      5638      5641      5642
      5640      5638      5641      5643      5640      5638      5641      5649
      5641      5643      5644      5645      5641      5643      5644      5646
      5641      5649      5652      5653      5642      5641      5643      5644
      5642      5641      5649      5650      5642      5641      5649      5651
      5642      5641      5649      5652      5643      5641      5649      5650
      5643      5641      5649      5651      5643      5641      5649      5652
      5643      5644      5646      5647      5643      5644      5646      5648
      5643      5644      5646      5658      5644      5643      5641      5649
      5644      5646      5658      5659      5644      5646      5658      5660
      5644      5646      5658      5661      5645      5644      5646      5647
      5645      5644      5646      5648      5645      5644      5646      5658
      5646      5658      5661      5662      5646      5658      5661      5663
      5646      5658      5661      5664      5647      5646      5658      5659
      5647      5646      5658      5660      5647      5646      5658      5661
      5648      5646      5658      5659      5648      5646      5658      5660
      5648      5646      5658      5661      5649      5652      5653      5654
      5649      5652      5653      5655      5650      5649      5652      5653
      5651      5649      5652      5653      5652      5653      5655      5656
      5652      5653      5655      5657      5652      5653      5655      5702
      5653      5655      5702      5703      5653      5655      5702      5704
      5653      5655      5702      5705      5654      5653      5655      5656
      5654      5653      5655      5657      5654      5653      5655      5702
      5655      5702      5705      5706      5655      5702      5705      5707
      5655      5702      5705      5708      5656      5655      5702      5703
      5656      5655      5702      5704      5656      5655      5702      5705
      5657      5655      5702      5703      5657      5655      5702      5704
      5657      5655      5702      5705      5658      5661      5664      5665
      5658      5661      5664      5666      5658      5661      5664      5667
      5659      5658      5661      5662      5659      5658      5661      5663
      5659      5658      5661      5664      5660      5658      5661      5662
      5660      5658      5661      5663      5660      5658      5661      5664
      5661      5664      5667      5668      5661      5664      5667      5669
      5661      5664      5667      5670      5662      5661      5664      5665
      5662      5661      5664      5666      5662      5661      5664      5667
      5663      5661      5664      5665      5663      5661      5664      5666
      5663      5661      5664      5667      5664      5667      5670      5671
      5664      5667      5670      5672      5664      5667      5670      5673
      5665      5664      5667      5668      5665      5664      5667      5669
      5665      5664      5667      5670      5666      5664      5667      5668
      5666      5664      5667      5669      5666      5664      5667      5670
      5667      5670      5673      5674      5667      5670      5673      5675
      5667      5670      5673      5676      5668      5667      5670      5671
      5668      5667      5670      5672      5668      5667      5670      5673
      5669      5667      5670      5671      5669      5667      5670      5672
      5669      5667      5670      5673      5670      5673      5676      5677
      5670      5673      5676      5678      5670      5673      5676      5681
      5671      5670      5673      5674      5671      5670      5673      5675
      5671      5670      5673      5676      5672      5670      5673      5674
      5672      5670      5673      5675      5672      5670      5673      5676
      5673      5676      5678      5679      5673      5676      5678      5680
      5673      5676      5678      5681      5673      5676      5681      5678
      5673      5676      5681      5682      5673      5676      5681      5683
      5674      5673      5676      5677      5674      5673      5676      5678
      5674      5673      5676      5681      5675      5673      5676      5677
      5675      5673      5676      5678      5675      5673      5676      5681
      5676      5678      5681      5682      5676      5678      5681      5683
      5676      5681      5678      5679      5676      5681      5678      5680
      5676      5681      5683      5684      5676      5681      5683      5685
      5676      5681      5683      5686      5677      5676      5678      5679
      5677      5676      5678      5680      5677      5676      5678      5681
      5677      5676      5681      5678      5677      5676      5681      5682
      5677      5676      5681      5683      5678      5676      5681      5682
      5678      5676      5681      5683      5678      5681      5683      5684
      5678      5681      5683      5685      5678      5681      5683      5686
      5679      5678      5676      5681      5679      5678      5681      5682
      5679      5678      5681      5683      5680      5678      5676      5681
      5680      5678      5681      5682      5680      5678      5681      5683
      5681      5683      5686      5687      5681      5683      5686      5688
      5681      5683      5686      5689      5682      5681      5683      5684
      5682      5681      5683      5685      5682      5681      5683      5686
      5683      5686      5689      5690      5683      5686      5689      5691
      5683      5686      5689      5692      5684      5683      5686      5687
      5684      5683      5686      5688      5684      5683      5686      5689
      5685      5683      5686      5687      5685      5683      5686      5688
      5685      5683      5686      5689      5686      5689      5692      5693
      5686      5689      5692      5694      5686      5689      5692      5695
      5687      5686      5689      5690      5687      5686      5689      5691
      5687      5686      5689      5692      5688      5686      5689      5690
      5688      5686      5689      5691      5688      5686      5689      5692
      5689      5692      5695      5696      5689      5692      5695      5697
      5689      5692      5695      5698      5690      5689      5692      5693
      5690      5689      5692      5694      5690      5689      5692      5695
      5691      5689      5692      5693      5691      5689      5692      5694
      5691      5689      5692      5695      5692      5695      5698      5699
      5692      5695      5698      5700      5692      5695      5698      5701
      5693      5692      5695      5696      5693      5692      5695      5697
      5693      5692      5695      5698      5694      5692      5695      5696
      5694      5692      5695      5697      5694      5692      5695      5698
      5696      5695      5698      5699      5696      5695      5698      5700
      5696      5695      5698      5701      5697      5695      5698      5699
      5697      5695      5698      5700      5697      5695      5698      5701
      5702      5705      5708      5709      5702      5705      5708      5710
      5702      5705      5708      5711      5703      5702      5705      5706
      5703      5702      5705      5707      5703      5702      5705      5708
      5704      5702      5705      5706      5704      5702      5705      5707
      5704      5702      5705      5708      5705      5708      5711      5712
      5705      5708      5711      5713      5705      5708      5711      5714
      5706      5705      5708      5709      5706      5705      5708      5710
      5706      5705      5708      5711      5707      5705      5708      5709
      5707      5705      5708      5710      5707      5705      5708      5711
      5708      5711      5714      5715      5708      5711      5714      5716
      5708      5711      5714      5717      5709      5708      5711      5712
      5709      5708      5711      5713      5709      5708      5711      5714
      5710      5708      5711      5712      5710      5708      5711      5713
      5710      5708      5711      5714      5711      5714      5717      5718
      5711      5714      5717      5719      5711      5714      5717      5720
      5712      5711      5714      5715      5712      5711      5714      5716
      5712      5711      5714      5717      5713      5711      5714      5715
      5713      5711      5714      5716      5713      5711      5714      5717
      5714      5717      5720      5721      5714      5717      5720      5722
      5714      5717      5720      5723      5715      5714      5717      5718
      5715      5714      5717      5719      5715      5714      5717      5720
      5716      5714      5717      5718      5716      5714      5717      5719
      5716      5714      5717      5720      5717      5720      5723      5724
      5717      5720      5723      5725      5717      5720      5723      5726
      5718      5717      5720      5721      5718      5717      5720      5722
      5718      5717      5720      5723      5719      5717      5720      5721
      5719      5717      5720      5722      5719      5717      5720      5723
      5720      5723      5726      5727      5720      5723      5726      5728
      5720      5723      5726      5729      5721      5720      5723      5724
      5721      5720      5723      5725      5721      5720      5723      5726
      5722      5720      5723      5724      5722      5720      5723      5725
      5722      5720      5723      5726      5723      5726      5729      5730
      5723      5726      5729      5731      5723      5726      5729      5732
      5724      5723      5726      5727      5724      5723      5726      5728
      5724      5723      5726      5729      5725      5723      5726      5727
      5725      5723      5726      5728      5725      5723      5726      5729
      5726      5729      5732      5733      5726      5729      5732      5734
      5726      5729      5732      5735      5727      5726      5729      5730
      5727      5726      5729      5731      5727      5726      5729      5732
      5728      5726      5729      5730      5728      5726      5729      5731
      5728      5726      5729      5732      5729      5732      5735      5736
      5729      5732      5735      5737      5729      5732      5735      5738
      5730      5729      5732      5733      5730      5729      5732      5734
      5730      5729      5732      5735      5731      5729      5732      5733
      5731      5729      5732      5734      5731      5729      5732      5735
      5732      5735      5738      5739      5732      5735      5738      5740
      5732      5735      5738      5741      5733      5732      5735      5736
      5733      5732      5735      5737      5733      5732      5735      5738
      5734      5732      5735      5736      5734      5732      5735      5737
      5734      5732      5735      5738      5735      5738      5741      5742
      5735      5738      5741      5743      5735      5738      5741      5744
      5736      5735      5738      5739      5736      5735      5738      5740
      5736      5735      5738      5741      5737      5735      5738      5739
      5737      5735      5738      5740      5737      5735      5738      5741
      5739      5738      5741      5742      5739      5738      5741      5743
      5739      5738      5741      5744      5740      5738      5741      5742
      5740      5738      5741      5743      5740      5738      5741      5744
      5745      5750      5752      5753      5745      5750      5754      5755
      5745      5750      5754      5756      5745      5750      5754      5761
      5746      5745      5748      5749      5746      5745      5750      5751
      5746      5745      5750      5752      5746      5745      5750      5754
      5747      5745      5748      5749      5747      5745      5750      5751
      5747      5745      5750      5752      5747      5745      5750      5754
      5748      5745      5750      5751      5748      5745      5750      5752
      5748      5745      5750      5754      5749      5748      5745      5750
      5750      5754      5761      5757      5751      5750      5752      5753
      5751      5750      5754      5755      5751      5750      5754      5756
      5751      5750      5754      5761      5752      5750      5754      5755
      5752      5750      5754      5756      5752      5750      5754      5761
      5753      5752      5750      5754      5754      5761      5757      5758
      5754      5761      5757      5759      5754      5761      5757      5760
      5755      5754      5761      5757      5756      5754      5761      5757
      5757      5760      5762      5763      5757      5760      5762      5764
      5757      5760      5762      5765      5758      5757      5760      5762
      5759      5757      5760      5762      5760      5762      5765      5766
      5760      5762      5765      5767      5760      5762      5765      5773
      5761      5757      5760      5762      5762      5765      5767      5768
      5762      5765      5773      5774      5762      5765      5773      5775
      5762      5765      5773      5776      5763      5762      5765      5766
      5763      5762      5765      5767      5763      5762      5765      5773
      5764      5762      5765      5766      5764      5762      5765      5767
      5764      5762      5765      5773      5765      5767      5768      5769
      5765      5767      5768      5770      5765      5773      5776      5777
      5766      5765      5767      5768      5766      5765      5773      5774
      5766      5765      5773      5775      5766      5765      5773      5776
      5767      5765      5773      5774      5767      5765      5773      5775
      5767      5765      5773      5776      5767      5768      5770      5771
      5767      5768      5770      5772      5767      5768      5770      5782
      5768      5767      5765      5773      5768      5770      5782      5783
      5768      5770      5782      5784      5768      5770      5782      5785
      5769      5768      5770      5771      5769      5768      5770      5772
      5769      5768      5770      5782      5770      5782      5785      5786
      5770      5782      5785      5787      5770      5782      5785      5788
      5771      5770      5782      5783      5771      5770      5782      5784
      5771      5770      5782      5785      5772      5770      5782      5783
      5772      5770      5782      5784      5772      5770      5782      5785
      5773      5776      5777      5778      5773      5776      5777      5779
      5774      5773      5776      5777      5775      5773      5776      5777
      5776      5777      5779      5780      5776      5777      5779      5781
      5776      5777      5779      5823      5777      5779      5823      5824
      5777      5779      5823      5825      5777      5779      5823      5826
      5778      5777      5779      5780      5778      5777      5779      5781
      5778      5777      5779      5823      5779      5823      5826      5827
      5779      5823      5826      5828      5779      5823      5826      5829
      5780      5779      5823      5824      5780      5779      5823      5825
      5780      5779      5823      5826      5781      5779      5823      5824
      5781      5779      5823      5825      5781      5779      5823      5826
      5782      5785      5788      5789      5782      5785      5788      5790
      5782      5785      5788      5791      5783      5782      5785      5786
      5783      5782      5785      5787      5783      5782      5785      5788
      5784      5782      5785      5786      5784      5782      5785      5787
      5784      5782      5785      5788      5785      5788      5791      5792
      5785      5788      5791      5793      5785      5788      5791      5794
      5786      5785      5788      5789      5786      5785      5788      5790
      5786      5785      5788      5791      5787      5785      5788      5789
      5787      5785      5788      5790      5787      5785      5788      5791
      5788      5791      5794      5795      5788      5791      5794      5796
      5788      5791      5794      5797      5789      5788      5791      5792
      5789      5788      5791      5793      5789      5788      5791      5794
      5790      5788      5791      5792      5790      5788      5791      5793
      5790      5788      5791      5794      5791      5794      5797      5798
      5791      5794      5797      5799      5791      5794      5797      5800
      5792      5791      5794      5795      5792      5791      5794      5796
      5792      5791      5794      5797      5793      5791      5794      5795
      5793      5791      5794      5796      5793      5791      5794      5797
      5794      5797      5800      5801      5794      5797      5800      5802
      5795      5794      5797      5798      5795      5794      5797      5799
      5795      5794      5797      5800      5796      5794      5797      5798
      5796      5794      5797      5799      5796      5794      5797      5800
      5797      5800      5802      5803      5797      5800      5802      5804
      5798      5797      5800      5801      5798      5797      5800      5802
      5799      5797      5800      5801      5799      5797      5800      5802
      5800      5802      5804      5805      5800      5802      5804      5806
      5800      5802      5804      5807      5801      5800      5802      5803
      5801      5800      5802      5804      5802      5804      5807      5808
      5802      5804      5807      5809      5802      5804      5807      5810
      5803      5802      5804      5805      5803      5802      5804      5806
      5803      5802      5804      5807      5804      5807      5810      5811
      5804      5807      5810      5812      5804      5807      5810      5813
      5805      5804      5807      5808      5805      5804      5807      5809
      5805      5804      5807      5810      5806      5804      5807      5808
      5806      5804      5807      5809      5806      5804      5807      5810
      5807      5810      5813      5814      5807      5810      5813      5815
      5807      5810      5813      5816      5808      5807      5810      5811
      5808      5807      5810      5812      5808      5807      5810      5813
      5809      5807      5810      5811      5809      5807      5810      5812
      5809      5807      5810      5813      5810      5813      5816      5817
      5810      5813      5816      5818      5810      5813      5816      5819
      5811      5810      5813      5814      5811      5810      5813      5815
      5811      5810      5813      5816      5812      5810      5813      5814
      5812      5810      5813      5815      5812      5810      5813      5816
      5813      5816      5819      5820      5813      5816      5819      5821
      5813      5816      5819      5822      5814      5813      5816      5817
      5814      5813      5816      5818      5814      5813      5816      5819
      5815      5813      5816      5817      5815      5813      5816      5818
      5815      5813      5816      5819      5817      5816      5819      5820
      5817      5816      5819      5821      5817      5816      5819      5822
      5818      5816      5819      5820      5818      5816      5819      5821
      5818      5816      5819      5822      5823      5826      5829      5830
      5823      5826      5829      5831      5823      5826      5829      5832
      5824      5823      5826      5827      5824      5823      5826      5828
      5824      5823      5826      5829      5825      5823      5826      5827
      5825      5823      5826      5828      5825      5823      5826      5829
      5826      5829      5832      5833      5826      5829      5832      5834
      5826      5829      5832      5835      5827      5826      5829      5830
      5827      5826      5829      5831      5827      5826      5829      5832
      5828      5826      5829      5830      5828      5826      5829      5831
      5828      5826      5829      5832      5829      5832      5835      5836
      5829      5832      5835      5837      5829      5832      5835      5838
      5830      5829      5832      5833      5830      5829      5832      5834
      5830      5829      5832      5835      5831      5829      5832      5833
      5831      5829      5832      5834      5831      5829      5832      5835
      5832      5835      5838      5839      5832      5835      5838      5840
      5832      5835      5838      5841      5833      5832      5835      5836
      5833      5832      5835      5837      5833      5832      5835      5838
      5834      5832      5835      5836      5834      5832      5835      5837
      5834      5832      5835      5838      5835      5838      5841      5842
      5835      5838      5841      5843      5835      5838      5841      5844
      5836      5835      5838      5839      5836      5835      5838      5840
      5836      5835      5838      5841      5837      5835      5838      5839
      5837      5835      5838      5840      5837      5835      5838      5841
      5838      5841      5844      5845      5838      5841      5844      5846
      5838      5841      5844      5847      5839      5838      5841      5842
      5839      5838      5841      5843      5839      5838      5841      5844
      5840      5838      5841      5842      5840      5838      5841      5843
      5840      5838      5841      5844      5841      5844      5847      5848
      5841      5844      5847      5849      5841      5844      5847      5850
      5842      5841      5844      5845      5842      5841      5844      5846
      5842      5841      5844      5847      5843      5841      5844      5845
      5843      5841      5844      5846      5843      5841      5844      5847
      5844      5847      5850      5851      5844      5847      5850      5852
      5844      5847      5850      5853      5845      5844      5847      5848
      5845      5844      5847      5849      5845      5844      5847      5850
      5846      5844      5847      5848      5846      5844      5847      5849
      5846      5844      5847      5850      5847      5850      5853      5854
      5847      5850      5853      5855      5847      5850      5853      5856
      5848      5847      5850      5851      5848      5847      5850      5852
      5848      5847      5850      5853      5849      5847      5850      5851
      5849      5847      5850      5852      5849      5847      5850      5853
      5850      5853      5856      5857      5850      5853      5856      5858
      5850      5853      5856      5859      5851      5850      5853      5854
      5851      5850      5853      5855      5851      5850      5853      5856
      5852      5850      5853      5854      5852      5850      5853      5855
      5852      5850      5853      5856      5853      5856      5859      5860
      5853      5856      5859      5861      5853      5856      5859      5862
      5854      5853      5856      5857      5854      5853      5856      5858
      5854      5853      5856      5859      5855      5853      5856      5857
      5855      5853      5856      5858      5855      5853      5856      5859
      5856      5859      5862      5863      5856      5859      5862      5864
      5856      5859      5862      5865      5857      5856      5859      5860
      5857      5856      5859      5861      5857      5856      5859      5862
      5858      5856      5859      5860      5858      5856      5859      5861
      5858      5856      5859      5862      5860      5859      5862      5863
      5860      5859      5862      5864      5860      5859      5862      5865
      5861      5859      5862      5863      5861      5859      5862      5864
      5861      5859      5862      5865      5866      5871      5873      5874
      5866      5871      5875      5876      5866      5871      5875      5877
      5866      5871      5875      5882      5867      5866      5869      5870
      5867      5866      5871      5872      5867      5866      5871      5873
      5867      5866      5871      5875      5868      5866      5869      5870
      5868      5866      5871      5872      5868      5866      5871      5873
      5868      5866      5871      5875      5869      5866      5871      5872
      5869      5866      5871      5873      5869      5866      5871      5875
      5870      5869      5866      5871      5871      5875      5882      5878
      5872      5871      5873      5874      5872      5871      5875      5876
      5872      5871      5875      5877      5872      5871      5875      5882
      5873      5871      5875      5876      5873      5871      5875      5877
      5873      5871      5875      5882      5874      5873      5871      5875
      5875      5882      5878      5879      5875      5882      5878      5880
      5875      5882      5878      5881      5876      5875      5882      5878
      5877      5875      5882      5878      5878      5881      5883      5884
      5878      5881      5883      5885      5878      5881      5883      5886
      5879      5878      5881      5883      5880      5878      5881      5883
      5881      5883      5886      5887      5881      5883      5886      5888
      5881      5883      5886      5894      5882      5878      5881      5883
      5883      5886      5888      5889      5883      5886      5894      5895
      5883      5886      5894      5896      5883      5886      5894      5897
      5884      5883      5886      5887      5884      5883      5886      5888
      5884      5883      5886      5894      5885      5883      5886      5887
      5885      5883      5886      5888      5885      5883      5886      5894
      5886      5888      5889      5890      5886      5888      5889      5891
      5886      5894      5897      5898      5887      5886      5888      5889
      5887      5886      5894      5895      5887      5886      5894      5896
      5887      5886      5894      5897      5888      5886      5894      5895
      5888      5886      5894      5896      5888      5886      5894      5897
      5888      5889      5891      5892      5888      5889      5891      5893
      5888      5889      5891      5903      5889      5888      5886      5894
      5889      5891      5903      5904      5889      5891      5903      5905
      5889      5891      5903      5906      5890      5889      5891      5892
      5890      5889      5891      5893      5890      5889      5891      5903
      5891      5903      5906      5907      5891      5903      5906      5908
      5891      5903      5906      5909      5892      5891      5903      5904
      5892      5891      5903      5905      5892      5891      5903      5906
      5893      5891      5903      5904      5893      5891      5903      5905
      5893      5891      5903      5906      5894      5897      5898      5899
      5894      5897      5898      5900      5895      5894      5897      5898
      5896      5894      5897      5898      5897      5898      5900      5901
      5897      5898      5900      5902      5897      5898      5900      5947
      5898      5900      5947      5948      5898      5900      5947      5949
      5898      5900      5947      5950      5899      5898      5900      5901
      5899      5898      5900      5902      5899      5898      5900      5947
      5900      5947      5950      5951      5900      5947      5950      5952
      5900      5947      5950      5953      5901      5900      5947      5948
      5901      5900      5947      5949      5901      5900      5947      5950
      5902      5900      5947      5948      5902      5900      5947      5949
      5902      5900      5947      5950      5903      5906      5909      5910
      5903      5906      5909      5911      5903      5906      5909      5912
      5904      5903      5906      5907      5904      5903      5906      5908
      5904      5903      5906      5909      5905      5903      5906      5907
      5905      5903      5906      5908      5905      5903      5906      5909
      5906      5909      5912      5913      5906      5909      5912      5914
      5906      5909      5912      5915      5907      5906      5909      5910
      5907      5906      5909      5911      5907      5906      5909      5912
      5908      5906      5909      5910      5908      5906      5909      5911
      5908      5906      5909      5912      5909      5912      5915      5916
      5909      5912      5915      5917      5909      5912      5915      5918
      5910      5909      5912      5913      5910      5909      5912      5914
      5910      5909      5912      5915      5911      5909      5912      5913
      5911      5909      5912      5914      5911      5909      5912      5915
      5912      5915      5918      5919      5912      5915      5918      5920
      5912      5915      5918      5921      5913      5912      5915      5916
      5913      5912      5915      5917      5913      5912      5915      5918
      5914      5912      5915      5916      5914      5912      5915      5917
      5914      5912      5915      5918      5915      5918      5921      5922
      5915      5918      5921      5923      5915      5918      5921      5926
      5916      5915      5918      5919      5916      5915      5918      5920
      5916      5915      5918      5921      5917      5915      5918      5919
      5917      5915      5918      5920      5917      5915      5918      5921
      5918      5921      5923      5924      5918      5921      5923      5925
      5918      5921      5923      5926      5918      5921      5926      5923
      5918      5921      5926      5927      5918      5921      5926      5928
      5919      5918      5921      5922      5919      5918      5921      5923
      5919      5918      5921      5926      5920      5918      5921      5922
      5920      5918      5921      5923      5920      5918      5921      5926
      5921      5923      5926      5927      5921      5923      5926      5928
      5921      5926      5923      5924      5921      5926      5923      5925
      5921      5926      5928      5929      5921      5926      5928      5930
      5921      5926      5928      5931      5922      5921      5923      5924
      5922      5921      5923      5925      5922      5921      5923      5926
      5922      5921      5926      5923      5922      5921      5926      5927
      5922      5921      5926      5928      5923      5921      5926      5927
      5923      5921      5926      5928      5923      5926      5928      5929
      5923      5926      5928      5930      5923      5926      5928      5931
      5924      5923      5921      5926      5924      5923      5926      5927
      5924      5923      5926      5928      5925      5923      5921      5926
      5925      5923      5926      5927      5925      5923      5926      5928
      5926      5928      5931      5932      5926      5928      5931      5933
      5926      5928      5931      5934      5927      5926      5928      5929
      5927      5926      5928      5930      5927      5926      5928      5931
      5928      5931      5934      5935      5928      5931      5934      5936
      5928      5931      5934      5937      5929      5928      5931      5932
      5929      5928      5931      5933      5929      5928      5931      5934
      5930      5928      5931      5932      5930      5928      5931      5933
      5930      5928      5931      5934      5931      5934      5937      5938
      5931      5934      5937      5939      5931      5934      5937      5940
      5932      5931      5934      5935      5932      5931      5934      5936
      5932      5931      5934      5937      5933      5931      5934      5935
      5933      5931      5934      5936      5933      5931      5934      5937
      5934      5937      5940      5941      5934      5937      5940      5942
      5934      5937      5940      5943      5935      5934      5937      5938
      5935      5934      5937      5939      5935      5934      5937      5940
      5936      5934      5937      5938      5936      5934      5937      5939
      5936      5934      5937      5940      5937      5940      5943      5944
      5937      5940      5943      5945      5937      5940      5943      5946
      5938      5937      5940      5941      5938      5937      5940      5942
      5938      5937      5940      5943      5939      5937      5940      5941
      5939      5937      5940      5942      5939      5937      5940      5943
      5941      5940      5943      5944      5941      5940      5943      5945
      5941      5940      5943      5946      5942      5940      5943      5944
      5942      5940      5943      5945      5942      5940      5943      5946
      5947      5950      5953      5954      5947      5950      5953      5955
      5947      5950      5953      5956      5948      5947      5950      5951
      5948      5947      5950      5952      5948      5947      5950      5953
      5949      5947      5950      5951      5949      5947      5950      5952
      5949      5947      5950      5953      5950      5953      5956      5957
      5950      5953      5956      5958      5950      5953      5956      5959
      5951      5950      5953      5954      5951      5950      5953      5955
      5951      5950      5953      5956      5952      5950      5953      5954
      5952      5950      5953      5955      5952      5950      5953      5956
      5953      5956      5959      5960      5953      5956      5959      5961
      5953      5956      5959      5962      5954      5953      5956      5957
      5954      5953      5956      5958      5954      5953      5956      5959
      5955      5953      5956      5957      5955      5953      5956      5958
      5955      5953      5956      5959      5956      5959      5962      5963
      5956      5959      5962      5964      5956      5959      5962      5965
      5957      5956      5959      5960      5957      5956      5959      5961
      5957      5956      5959      5962      5958      5956      5959      5960
      5958      5956      5959      5961      5958      5956      5959      5962
      5959      5962      5965      5966      5959      5962      5965      5967
      5959      5962      5965      5968      5960      5959      5962      5963
      5960      5959      5962      5964      5960      5959      5962      5965
      5961      5959      5962      5963      5961      5959      5962      5964
      5961      5959      5962      5965      5962      5965      5968      5969
      5962      5965      5968      5970      5962      5965      5968      5971
      5963      5962      5965      5966      5963      5962      5965      5967
      5963      5962      5965      5968      5964      5962      5965      5966
      5964      5962      5965      5967      5964      5962      5965      5968
      5965      5968      5971      5972      5965      5968      5971      5973
      5965      5968      5971      5974      5966      5965      5968      5969
      5966      5965      5968      5970      5966      5965      5968      5971
      5967      5965      5968      5969      5967      5965      5968      5970
      5967      5965      5968      5971      5968      5971      5974      5975
      5968      5971      5974      5976      5968      5971      5974      5977
      5969      5968      5971      5972      5969      5968      5971      5973
      5969      5968      5971      5974      5970      5968      5971      5972
      5970      5968      5971      5973      5970      5968      5971      5974
      5971      5974      5977      5978      5971      5974      5977      5979
      5971      5974      5977      5980      5972      5971      5974      5975
      5972      5971      5974      5976      5972      5971      5974      5977
      5973      5971      5974      5975      5973      5971      5974      5976
      5973      5971      5974      5977      5974      5977      5980      5981
      5974      5977      5980      5982      5974      5977      5980      5983
      5975      5974      5977      5978      5975      5974      5977      5979
      5975      5974      5977      5980      5976      5974      5977      5978
      5976      5974      5977      5979      5976      5974      5977      5980
      5977      5980      5983      5984      5977      5980      5983      5985
      5977      5980      5983      5986      5978      5977      5980      5981
      5978      5977      5980      5982      5978      5977      5980      5983
      5979      5977      5980      5981      5979      5977      5980      5982
      5979      5977      5980      5983      5980      5983      5986      5987
      5980      5983      5986      5988      5980      5983      5986      5989
      5981      5980      5983      5984      5981      5980      5983      5985
      5981      5980      5983      5986      5982      5980      5983      5984
      5982      5980      5983      5985      5982      5980      5983      5986
      5984      5983      5986      5987      5984      5983      5986      5988
      5984      5983      5986      5989      5985      5983      5986      5987
      5985      5983      5986      5988      5985      5983      5986      5989
      5990      5994      5997      5998      5990      5994      5997      5999
      5990      5994      5997      6004      5991      5990      5994      5995
      5991      5990      5994      5996      5991      5990      5994      5997
      5992      5990      5994      5995      5992      5990      5994      5996
      5992      5990      5994      5997      5993      5990      5994      5995
      5993      5990      5994      5996      5993      5990      5994      5997
      5994      5997      6004      6000      5995      5994      5997      5998
      5995      5994      5997      5999      5995      5994      5997      6004
      5996      5994      5997      5998      5996      5994      5997      5999
      5996      5994      5997      6004      5997      6004      6000      6001
      5997      6004      6000      6002      5997      6004      6000      6003
      5998      5997      6004      6000      5999      5997      6004      6000
      6000      6003      6005      6006      6000      6003      6005      6007
      6000      6003      6005      6008      6001      6000      6003      6005
      6002      6000      6003      6005      6003      6005      6008      6009
      6003      6005      6008      6010      6003      6005      6008      6016
      6004      6000      6003      6005      6005      6008      6010      6011
      6005      6008      6016      6017      6005      6008      6016      6018
      6005      6008      6016      6019      6006      6005      6008      6009
      6006      6005      6008      6010      6006      6005      6008      6016
      6007      6005      6008      6009      6007      6005      6008      6010
      6007      6005      6008      6016      6008      6010      6011      6012
      6008      6010      6011      6013      6008      6016      6019      6020
      6009      6008      6010      6011      6009      6008      6016      6017
      6009      6008      6016      6018      6009      6008      6016      6019
      6010      6008      6016      6017      6010      6008      6016      6018
      6010      6008      6016      6019      6010      6011      6013      6014
      6010      6011      6013      6015      6010      6011      6013      6025
      6011      6010      6008      6016      6011      6013      6025      6026
      6011      6013      6025      6027      6011      6013      6025      6028
      6012      6011      6013      6014      6012      6011      6013      6015
      6012      6011      6013      6025      6013      6025      6028      6029
      6013      6025      6028      6030      6013      6025      6028      6031
      6014      6013      6025      6026      6014      6013      6025      6027
      6014      6013      6025      6028      6015      6013      6025      6026
      6015      6013      6025      6027      6015      6013      6025      6028
      6016      6019      6020      6021      6016      6019      6020      6022
      6017      6016      6019      6020      6018      6016      6019      6020
      6019      6020      6022      6023      6019      6020      6022      6024
      6019      6020      6022      6069      6020      6022      6069      6070
      6020      6022      6069      6071      6020      6022      6069      6072
      6021      6020      6022      6023      6021      6020      6022      6024
      6021      6020      6022      6069      6022      6069      6072      6073
      6022      6069      6072      6074      6022      6069      6072      6075
      6023      6022      6069      6070      6023      6022      6069      6071
      6023      6022      6069      6072      6024      6022      6069      6070
      6024      6022      6069      6071      6024      6022      6069      6072
      6025      6028      6031      6032      6025      6028      6031      6033
      6025      6028      6031      6034      6026      6025      6028      6029
      6026      6025      6028      6030      6026      6025      6028      6031
      6027      6025      6028      6029      6027      6025      6028      6030
      6027      6025      6028      6031      6028      6031      6034      6035
      6028      6031      6034      6036      6028      6031      6034      6037
      6029      6028      6031      6032      6029      6028      6031      6033
      6029      6028      6031      6034      6030      6028      6031      6032
      6030      6028      6031      6033      6030      6028      6031      6034
      6031      6034      6037      6038      6031      6034      6037      6039
      6031      6034      6037      6040      6032      6031      6034      6035
      6032      6031      6034      6036      6032      6031      6034      6037
      6033      6031      6034      6035      6033      6031      6034      6036
      6033      6031      6034      6037      6034      6037      6040      6041
      6034      6037      6040      6042      6034      6037      6040      6043
      6035      6034      6037      6038      6035      6034      6037      6039
      6035      6034      6037      6040      6036      6034      6037      6038
      6036      6034      6037      6039      6036      6034      6037      6040
      6037      6040      6043      6044      6037      6040      6043      6045
      6037      6040      6043      6048      6038      6037      6040      6041
      6038      6037      6040      6042      6038      6037      6040      6043
      6039      6037      6040      6041      6039      6037      6040      6042
      6039      6037      6040      6043      6040      6043      6045      6046
      6040      6043      6045      6047      6040      6043      6045      6048
      6040      6043      6048      6045      6040      6043      6048      6049
      6040      6043      6048      6050      6041      6040      6043      6044
      6041      6040      6043      6045      6041      6040      6043      6048
      6042      6040      6043      6044      6042      6040      6043      6045
      6042      6040      6043      6048      6043      6045      6048      6049
      6043      6045      6048      6050      6043      6048      6045      6046
      6043      6048      6045      6047      6043      6048      6050      6051
      6043      6048      6050      6052      6043      6048      6050      6053
      6044      6043      6045      6046      6044      6043      6045      6047
      6044      6043      6045      6048      6044      6043      6048      6045
      6044      6043      6048      6049      6044      6043      6048      6050
      6045      6043      6048      6049      6045      6043      6048      6050
      6045      6048      6050      6051      6045      6048      6050      6052
      6045      6048      6050      6053      6046      6045      6043      6048
      6046      6045      6048      6049      6046      6045      6048      6050
      6047      6045      6043      6048      6047      6045      6048      6049
      6047      6045      6048      6050      6048      6050      6053      6054
      6048      6050      6053      6055      6048      6050      6053      6056
      6049      6048      6050      6051      6049      6048      6050      6052
      6049      6048      6050      6053      6050      6053      6056      6057
      6050      6053      6056      6058      6050      6053      6056      6059
      6051      6050      6053      6054      6051      6050      6053      6055
      6051      6050      6053      6056      6052      6050      6053      6054
      6052      6050      6053      6055      6052      6050      6053      6056
      6053      6056      6059      6060      6053      6056      6059      6061
      6053      6056      6059      6062      6054      6053      6056      6057
      6054      6053      6056      6058      6054      6053      6056      6059
      6055      6053      6056      6057      6055      6053      6056      6058
      6055      6053      6056      6059      6056      6059      6062      6063
      6056      6059      6062      6064      6056      6059      6062      6065
      6057      6056      6059      6060      6057      6056      6059      6061
      6057      6056      6059      6062      6058      6056      6059      6060
      6058      6056      6059      6061      6058      6056      6059      6062
      6059      6062      6065      6066      6059      6062      6065      6067
      6059      6062      6065      6068      6060      6059      6062      6063
      6060      6059      6062      6064      6060      6059      6062      6065
      6061      6059      6062      6063      6061      6059      6062      6064
      6061      6059      6062      6065      6063      6062      6065      6066
      6063      6062      6065      6067      6063      6062      6065      6068
      6064      6062      6065      6066      6064      6062      6065      6067
      6064      6062      6065      6068      6069      6072      6075      6076
      6069      6072      6075      6077      6069      6072      6075      6078
      6070      6069      6072      6073      6070      6069      6072      6074
      6070      6069      6072      6075      6071      6069      6072      6073
      6071      6069      6072      6074      6071      6069      6072      6075
      6072      6075      6078      6079      6072      6075      6078      6080
      6072      6075      6078      6081      6073      6072      6075      6076
      6073      6072      6075      6077      6073      6072      6075      6078
      6074      6072      6075      6076      6074      6072      6075      6077
      6074      6072      6075      6078      6075      6078      6081      6082
      6075      6078      6081      6083      6075      6078      6081      6084
      6076      6075      6078      6079      6076      6075      6078      6080
      6076      6075      6078      6081      6077      6075      6078      6079
      6077      6075      6078      6080      6077      6075      6078      6081
      6078      6081      6084      6085      6078      6081      6084      6086
      6078      6081      6084      6087      6079      6078      6081      6082
      6079      6078      6081      6083      6079      6078      6081      6084
      6080      6078      6081      6082      6080      6078      6081      6083
      6080      6078      6081      6084      6081      6084      6087      6088
      6081      6084      6087      6089      6081      6084      6087      6090
      6082      6081      6084      6085      6082      6081      6084      6086
      6082      6081      6084      6087      6083      6081      6084      6085
      6083      6081      6084      6086      6083      6081      6084      6087
      6084      6087      6090      6091      6084      6087      6090      6092
      6084      6087      6090      6093      6085      6084      6087      6088
      6085      6084      6087      6089      6085      6084      6087      6090
      6086      6084      6087      6088      6086      6084      6087      6089
      6086      6084      6087      6090      6087      6090      6093      6094
      6087      6090      6093      6095      6087      6090      6093      6096
      6088      6087      6090      6091      6088      6087      6090      6092
      6088      6087      6090      6093      6089      6087      6090      6091
      6089      6087      6090      6092      6089      6087      6090      6093
      6090      6093      6096      6097      6090      6093      6096      6098
      6090      6093      6096      6099      6091      6090      6093      6094
      6091      6090      6093      6095      6091      6090      6093      6096
      6092      6090      6093      6094      6092      6090      6093      6095
      6092      6090      6093      6096      6093      6096      6099      6100
      6093      6096      6099      6101      6093      6096      6099      6102
      6094      6093      6096      6097      6094      6093      6096      6098
      6094      6093      6096      6099      6095      6093      6096      6097
      6095      6093      6096      6098      6095      6093      6096      6099
      6096      6099      6102      6103      6096      6099      6102      6104
      6096      6099      6102      6105      6097      6096      6099      6100
      6097      6096      6099      6101      6097      6096      6099      6102
      6098      6096      6099      6100      6098      6096      6099      6101
      6098      6096      6099      6102      6099      6102      6105      6106
      6099      6102      6105      6107      6099      6102      6105      6108
      6100      6099      6102      6103      6100      6099      6102      6104
      6100      6099      6102      6105      6101      6099      6102      6103
      6101      6099      6102      6104      6101      6099      6102      6105
      6102      6105      6108      6109      6102      6105      6108      6110
      6102      6105      6108      6111      6103      6102      6105      6106
      6103      6102      6105      6107      6103      6102      6105      6108
      6104      6102      6105      6106      6104      6102      6105      6107
      6104      6102      6105      6108      6106      6105      6108      6109
      6106      6105      6108      6110      6106      6105      6108      6111
      6107      6105      6108      6109      6107      6105      6108      6110
      6107      6105      6108      6111      6112      6116      6119      6120
      6112      6116      6119      6121      6112      6116      6119      6126
      6113      6112      6116      6117      6113      6112      6116      6118
      6113      6112      6116      6119      6114      6112      6116      6117
      6114      6112      6116      6118      6114      6112      6116      6119
      6115      6112      6116      6117      6115      6112      6116      6118
      6115      6112      6116      6119      6116      6119      6126      6122
      6117      6116      6119      6120      6117      6116      6119      6121
      6117      6116      6119      6126      6118      6116      6119      6120
      6118      6116      6119      6121      6118      6116      6119      6126
      6119      6126      6122      6123      6119      6126      6122      6124
      6119      6126      6122      6125      6120      6119      6126      6122
      6121      6119      6126      6122      6122      6125      6127      6128
      6122      6125      6127      6129      6122      6125      6127      6130
      6123      6122      6125      6127      6124      6122      6125      6127
      6125      6127      6130      6131      6125      6127      6130      6132
      6125      6127      6130      6138      6126      6122      6125      6127
      6127      6130      6132      6133      6127      6130      6138      6139
      6127      6130      6138      6140      6127      6130      6138      6141
      6128      6127      6130      6131      6128      6127      6130      6132
      6128      6127      6130      6138      6129      6127      6130      6131
      6129      6127      6130      6132      6129      6127      6130      6138
      6130      6132      6133      6134      6130      6132      6133      6135
      6130      6138      6141      6142      6131      6130      6132      6133
      6131      6130      6138      6139      6131      6130      6138      6140
      6131      6130      6138      6141      6132      6130      6138      6139
      6132      6130      6138      6140      6132      6130      6138      6141
      6132      6133      6135      6136      6132      6133      6135      6137
      6132      6133      6135      6147      6133      6132      6130      6138
      6133      6135      6147      6148      6133      6135      6147      6149
      6133      6135      6147      6150      6134      6133      6135      6136
      6134      6133      6135      6137      6134      6133      6135      6147
      6135      6147      6150      6151      6135      6147      6150      6152
      6135      6147      6150      6153      6136      6135      6147      6148
      6136      6135      6147      6149      6136      6135      6147      6150
      6137      6135      6147      6148      6137      6135      6147      6149
      6137      6135      6147      6150      6138      6141      6142      6143
      6138      6141      6142      6144      6139      6138      6141      6142
      6140      6138      6141      6142      6141      6142      6144      6145
      6141      6142      6144      6146      6141      6142      6144      6191
      6142      6144      6191      6192      6142      6144      6191      6193
      6142      6144      6191      6194      6143      6142      6144      6145
      6143      6142      6144      6146      6143      6142      6144      6191
      6144      6191      6194      6195      6144      6191      6194      6196
      6144      6191      6194      6197      6145      6144      6191      6192
      6145      6144      6191      6193      6145      6144      6191      6194
      6146      6144      6191      6192      6146      6144      6191      6193
      6146      6144      6191      6194      6147      6150      6153      6154
      6147      6150      6153      6155      6147      6150      6153      6156
      6148      6147      6150      6151      6148      6147      6150      6152
      6148      6147      6150      6153      6149      6147      6150      6151
      6149      6147      6150      6152      6149      6147      6150      6153
      6150      6153      6156      6157      6150      6153      6156      6158
      6150      6153      6156      6159      6151      6150      6153      6154
      6151      6150      6153      6155      6151      6150      6153      6156
      6152      6150      6153      6154      6152      6150      6153      6155
      6152      6150      6153      6156      6153      6156      6159      6160
      6153      6156      6159      6161      6153      6156      6159      6162
      6154      6153      6156      6157      6154      6153      6156      6158
      6154      6153      6156      6159      6155      6153      6156      6157
      6155      6153      6156      6158      6155      6153      6156      6159
      6156      6159      6162      6163      6156      6159      6162      6164
      6156      6159      6162      6165      6157      6156      6159      6160
      6157      6156      6159      6161      6157      6156      6159      6162
      6158      6156      6159      6160      6158      6156      6159      6161
      6158      6156      6159      6162      6159      6162      6165      6166
      6159      6162      6165      6167      6159      6162      6165      6170
      6160      6159      6162      6163      6160      6159      6162      6164
      6160      6159      6162      6165      6161      6159      6162      6163
      6161      6159      6162      6164      6161      6159      6162      6165
      6162      6165      6167      6168      6162      6165      6167      6169
      6162      6165      6167      6170      6162      6165      6170      6167
      6162      6165      6170      6171      6162      6165      6170      6172
      6163      6162      6165      6166      6163      6162      6165      6167
      6163      6162      6165      6170      6164      6162      6165      6166
      6164      6162      6165      6167      6164      6162      6165      6170
      6165      6167      6170      6171      6165      6167      6170      6172
      6165      6170      6167      6168      6165      6170      6167      6169
      6165      6170      6172      6173      6165      6170      6172      6174
      6165      6170      6172      6175      6166      6165      6167      6168
      6166      6165      6167      6169      6166      6165      6167      6170
      6166      6165      6170      6167      6166      6165      6170      6171
      6166      6165      6170      6172      6167      6165      6170      6171
      6167      6165      6170      6172      6167      6170      6172      6173
      6167      6170      6172      6174      6167      6170      6172      6175
      6168      6167      6165      6170      6168      6167      6170      6171
      6168      6167      6170      6172      6169      6167      6165      6170
      6169      6167      6170      6171      6169      6167      6170      6172
      6170      6172      6175      6176      6170      6172      6175      6177
      6170      6172      6175      6178      6171      6170      6172      6173
      6171      6170      6172      6174      6171      6170      6172      6175
      6172      6175      6178      6179      6172      6175      6178      6180
      6172      6175      6178      6181      6173      6172      6175      6176
      6173      6172      6175      6177      6173      6172      6175      6178
      6174      6172      6175      6176      6174      6172      6175      6177
      6174      6172      6175      6178      6175      6178      6181      6182
      6175      6178      6181      6183      6175      6178      6181      6184
      6176      6175      6178      6179      6176      6175      6178      6180
      6176      6175      6178      6181      6177      6175      6178      6179
      6177      6175      6178      6180      6177      6175      6178      6181
      6178      6181      6184      6185      6178      6181      6184      6186
      6178      6181      6184      6187      6179      6178      6181      6182
      6179      6178      6181      6183      6179      6178      6181      6184
      6180      6178      6181      6182      6180      6178      6181      6183
      6180      6178      6181      6184      6181      6184      6187      6188
      6181      6184      6187      6189      6181      6184      6187      6190
      6182      6181      6184      6185      6182      6181      6184      6186
      6182      6181      6184      6187      6183      6181      6184      6185
      6183      6181      6184      6186      6183      6181      6184      6187
      6185      6184      6187      6188      6185      6184      6187      6189
      6185      6184      6187      6190      6186      6184      6187      6188
      6186      6184      6187      6189      6186      6184      6187      6190
      6191      6194      6197      6198      6191      6194      6197      6199
      6191      6194      6197      6200      6192      6191      6194      6195
      6192      6191      6194      6196      6192      6191      6194      6197
      6193      6191      6194      6195      6193      6191      6194      6196
      6193      6191      6194      6197      6194      6197      6200      6201
      6194      6197      6200      6202      6194      6197      6200      6203
      6195      6194      6197      6198      6195      6194      6197      6199
      6195      6194      6197      6200      6196      6194      6197      6198
      6196      6194      6197      6199      6196      6194      6197      6200
      6197      6200      6203      6204      6197      6200      6203      6205
      6197      6200      6203      6206      6198      6197      6200      6201
      6198      6197      6200      6202      6198      6197      6200      6203
      6199      6197      6200      6201      6199      6197      6200      6202
      6199      6197      6200      6203      6200      6203      6206      6207
      6200      6203      6206      6208      6200      6203      6206      6209
      6201      6200      6203      6204      6201      6200      6203      6205
      6201      6200      6203      6206      6202      6200      6203      6204
      6202      6200      6203      6205      6202      6200      6203      6206
      6203      6206      6209      6210      6203      6206      6209      6211
      6203      6206      6209      6212      6204      6203      6206      6207
      6204      6203      6206      6208      6204      6203      6206      6209
      6205      6203      6206      6207      6205      6203      6206      6208
      6205      6203      6206      6209      6206      6209      6212      6213
      6206      6209      6212      6214      6206      6209      6212      6215
      6207      6206      6209      6210      6207      6206      6209      6211
      6207      6206      6209      6212      6208      6206      6209      6210
      6208      6206      6209      6211      6208      6206      6209      6212
      6209      6212      6215      6216      6209      6212      6215      6217
      6209      6212      6215      6218      6210      6209      6212      6213
      6210      6209      6212      6214      6210      6209      6212      6215
      6211      6209      6212      6213      6211      6209      6212      6214
      6211      6209      6212      6215      6212      6215      6218      6219
      6212      6215      6218      6220      6212      6215      6218      6221
      6213      6212      6215      6216      6213      6212      6215      6217
      6213      6212      6215      6218      6214      6212      6215      6216
      6214      6212      6215      6217      6214      6212      6215      6218
      6215      6218      6221      6222      6215      6218      6221      6223
      6215      6218      6221      6224      6216      6215      6218      6219
      6216      6215      6218      6220      6216      6215      6218      6221
      6217      6215      6218      6219      6217      6215      6218      6220
      6217      6215      6218      6221      6218      6221      6224      6225
      6218      6221      6224      6226      6218      6221      6224      6227
      6219      6218      6221      6222      6219      6218      6221      6223
      6219      6218      6221      6224      6220      6218      6221      6222
      6220      6218      6221      6223      6220      6218      6221      6224
      6221      6224      6227      6228      6221      6224      6227      6229
      6221      6224      6227      6230      6222      6221      6224      6225
      6222      6221      6224      6226      6222      6221      6224      6227
      6223      6221      6224      6225      6223      6221      6224      6226
      6223      6221      6224      6227      6224      6227      6230      6231
      6224      6227      6230      6232      6224      6227      6230      6233
      6225      6224      6227      6228      6225      6224      6227      6229
      6225      6224      6227      6230      6226      6224      6227      6228
      6226      6224      6227      6229      6226      6224      6227      6230
      6228      6227      6230      6231      6228      6227      6230      6232
      6228      6227      6230      6233      6229      6227      6230      6231
      6229      6227      6230      6232      6229      6227      6230      6233
      6234      6238      6241      6242      6234      6238      6241      6243
      6234      6238      6241      6248      6235      6234      6238      6239
      6235      6234      6238      6240      6235      6234      6238      6241
      6236      6234      6238      6239      6236      6234      6238      6240
      6236      6234      6238      6241      6237      6234      6238      6239
      6237      6234      6238      6240      6237      6234      6238      6241
      6238      6241      6248      6244      6239      6238      6241      6242
      6239      6238      6241      6243      6239      6238      6241      6248
      6240      6238      6241      6242      6240      6238      6241      6243
      6240      6238      6241      6248      6241      6248      6244      6245
      6241      6248      6244      6246      6241      6248      6244      6247
      6242      6241      6248      6244      6243      6241      6248      6244
      6244      6247      6249      6250      6244      6247      6249      6251
      6244      6247      6249      6252      6245      6244      6247      6249
      6246      6244      6247      6249      6247      6249      6252      6253
      6247      6249      6252      6254      6247      6249      6252      6260
      6248      6244      6247      6249      6249      6252      6254      6255
      6249      6252      6260      6261      6249      6252      6260      6262
      6249      6252      6260      6263      6250      6249      6252      6253
      6250      6249      6252      6254      6250      6249      6252      6260
      6251      6249      6252      6253      6251      6249      6252      6254
      6251      6249      6252      6260      6252      6254      6255      6256
      6252      6254      6255      6257      6252      6260      6263      6264
      6253      6252      6254      6255      6253      6252      6260      6261
      6253      6252      6260      6262      6253      6252      6260      6263
      6254      6252      6260      6261      6254      6252      6260      6262
      6254      6252      6260      6263      6254      6255      6257      6258
      6254      6255      6257      6259      6254      6255      6257      6269
      6255      6254      6252      6260      6255      6257      6269      6270
      6255      6257      6269      6271      6255      6257      6269      6272
      6256      6255      6257      6258      6256      6255      6257      6259
      6256      6255      6257      6269      6257      6269      6272      6273
      6257      6269      6272      6274      6257      6269      6272      6275
      6258      6257      6269      6270      6258      6257      6269      6271
      6258      6257      6269      6272      6259      6257      6269      6270
      6259      6257      6269      6271      6259      6257      6269      6272
      6260      6263      6264      6265      6260      6263      6264      6266
      6261      6260      6263      6264      6262      6260      6263      6264
      6263      6264      6266      6267      6263      6264      6266      6268
      6263      6264      6266      6313      6264      6266      6313      6314
      6264      6266      6313      6315      6264      6266      6313      6316
      6265      6264      6266      6267      6265      6264      6266      6268
      6265      6264      6266      6313      6266      6313      6316      6317
      6266      6313      6316      6318      6266      6313      6316      6319
      6267      6266      6313      6314      6267      6266      6313      6315
      6267      6266      6313      6316      6268      6266      6313      6314
      6268      6266      6313      6315      6268      6266      6313      6316
      6269      6272      6275      6276      6269      6272      6275      6277
      6269      6272      6275      6278      6270      6269      6272      6273
      6270      6269      6272      6274      6270      6269      6272      6275
      6271      6269      6272      6273      6271      6269      6272      6274
      6271      6269      6272      6275      6272      6275      6278      6279
      6272      6275      6278      6280      6272      6275      6278      6281
      6273      6272      6275      6276      6273      6272      6275      6277
      6273      6272      6275      6278      6274      6272      6275      6276
      6274      6272      6275      6277      6274      6272      6275      6278
      6275      6278      6281      6282      6275      6278      6281      6283
      6275      6278      6281      6284      6276      6275      6278      6279
      6276      6275      6278      6280      6276      6275      6278      6281
      6277      6275      6278      6279      6277      6275      6278      6280
      6277      6275      6278      6281      6278      6281      6284      6285
      6278      6281      6284      6286      6278      6281      6284      6287
      6279      6278      6281      6282      6279      6278      6281      6283
      6279      6278      6281      6284      6280      6278      6281      6282
      6280      6278      6281      6283      6280      6278      6281      6284
      6281      6284      6287      6288      6281      6284      6287      6289
      6281      6284      6287      6292      6282      6281      6284      6285
      6282      6281      6284      6286      6282      6281      6284      6287
      6283      6281      6284      6285      6283      6281      6284      6286
      6283      6281      6284      6287      6284      6287      6289      6290
      6284      6287      6289      6291      6284      6287      6289      6292
      6284      6287      6292      6289      6284      6287      6292      6293
      6284      6287      6292      6294      6285      6284      6287      6288
      6285      6284      6287      6289      6285      6284      6287      6292
      6286      6284      6287      6288      6286      6284      6287      6289
      6286      6284      6287      6292      6287      6289      6292      6293
      6287      6289      6292      6294      6287      6292      6289      6290
      6287      6292      6289      6291      6287      6292      6294      6295
      6287      6292      6294      6296      6287      6292      6294      6297
      6288      6287      6289      6290      6288      6287      6289      6291
      6288      6287      6289      6292      6288      6287      6292      6289
      6288      6287      6292      6293      6288      6287      6292      6294
      6289      6287      6292      6293      6289      6287      6292      6294
      6289      6292      6294      6295      6289      6292      6294      6296
      6289      6292      6294      6297      6290      6289      6287      6292
      6290      6289      6292      6293      6290      6289      6292      6294
      6291      6289      6287      6292      6291      6289      6292      6293
      6291      6289      6292      6294      6292      6294      6297      6298
      6292      6294      6297      6299      6292      6294      6297      6300
      6293      6292      6294      6295      6293      6292      6294      6296
      6293      6292      6294      6297      6294      6297      6300      6301
      6294      6297      6300      6302      6294      6297      6300      6303
      6295      6294      6297      6298      6295      6294      6297      6299
      6295      6294      6297      6300      6296      6294      6297      6298
      6296      6294      6297      6299      6296      6294      6297      6300
      6297      6300      6303      6304      6297      6300      6303      6305
      6297      6300      6303      6306      6298      6297      6300      6301
      6298      6297      6300      6302      6298      6297      6300      6303
      6299      6297      6300      6301      6299      6297      6300      6302
      6299      6297      6300      6303      6300      6303      6306      6307
      6300      6303      6306      6308      6300      6303      6306      6309
      6301      6300      6303      6304      6301      6300      6303      6305
      6301      6300      6303      6306      6302      6300      6303      6304
      6302      6300      6303      6305      6302      6300      6303      6306
      6303      6306      6309      6310      6303      6306      6309      6311
      6303      6306      6309      6312      6304      6303      6306      6307
      6304      6303      6306      6308      6304      6303      6306      6309
      6305      6303      6306      6307      6305      6303      6306      6308
      6305      6303      6306      6309      6307      6306      6309      6310
      6307      6306      6309      6311      6307      6306      6309      6312
      6308      6306      6309      6310      6308      6306      6309      6311
      6308      6306      6309      6312      6313      6316      6319      6320
      6313      6316      6319      6321      6313      6316      6319      6322
      6314      6313      6316      6317      6314      6313      6316      6318
      6314      6313      6316      6319      6315      6313      6316      6317
      6315      6313      6316      6318      6315      6313      6316      6319
      6316      6319      6322      6323      6316      6319      6322      6324
      6316      6319      6322      6325      6317      6316      6319      6320
      6317      6316      6319      6321      6317      6316      6319      6322
      6318      6316      6319      6320      6318      6316      6319      6321
      6318      6316      6319      6322      6319      6322      6325      6326
      6319      6322      6325      6327      6319      6322      6325      6328
      6320      6319      6322      6323      6320      6319      6322      6324
      6320      6319      6322      6325      6321      6319      6322      6323
      6321      6319      6322      6324      6321      6319      6322      6325
      6322      6325      6328      6329      6322      6325      6328      6330
      6322      6325      6328      6331      6323      6322      6325      6326
      6323      6322      6325      6327      6323      6322      6325      6328
      6324      6322      6325      6326      6324      6322      6325      6327
      6324      6322      6325      6328      6325      6328      6331      6332
      6325      6328      6331      6333      6325      6328      6331      6334
      6326      6325      6328      6329      6326      6325      6328      6330
      6326      6325      6328      6331      6327      6325      6328      6329
      6327      6325      6328      6330      6327      6325      6328      6331
      6328      6331      6334      6335      6328      6331      6334      6336
      6328      6331      6334      6337      6329      6328      6331      6332
      6329      6328      6331      6333      6329      6328      6331      6334
      6330      6328      6331      6332      6330      6328      6331      6333
      6330      6328      6331      6334      6331      6334      6337      6338
      6331      6334      6337      6339      6331      6334      6337      6340
      6332      6331      6334      6335      6332      6331      6334      6336
      6332      6331      6334      6337      6333      6331      6334      6335
      6333      6331      6334      6336      6333      6331      6334      6337
      6334      6337      6340      6341      6334      6337      6340      6342
      6334      6337      6340      6343      6335      6334      6337      6338
      6335      6334      6337      6339      6335      6334      6337      6340
      6336      6334      6337      6338      6336      6334      6337      6339
      6336      6334      6337      6340      6337      6340      6343      6344
      6337      6340      6343      6345      6337      6340      6343      6346
      6338      6337      6340      6341      6338      6337      6340      6342
      6338      6337      6340      6343      6339      6337      6340      6341
      6339      6337      6340      6342      6339      6337      6340      6343
      6340      6343      6346      6347      6340      6343      6346      6348
      6340      6343      6346      6349      6341      6340      6343      6344
      6341      6340      6343      6345      6341      6340      6343      6346
      6342      6340      6343      6344      6342      6340      6343      6345
      6342      6340      6343      6346      6343      6346      6349      6350
      6343      6346      6349      6351      6343      6346      6349      6352
      6344      6343      6346      6347      6344      6343      6346      6348
      6344      6343      6346      6349      6345      6343      6346      6347
      6345      6343      6346      6348      6345      6343      6346      6349
      6346      6349      6352      6353      6346      6349      6352      6354
      6346      6349      6352      6355      6347      6346      6349      6350
      6347      6346      6349      6351      6347      6346      6349      6352
      6348      6346      6349      6350      6348      6346      6349      6351
      6348      6346      6349      6352      6350      6349      6352      6353
      6350      6349      6352      6354      6350      6349      6352      6355
      6351      6349      6352      6353      6351      6349      6352      6354
      6351      6349      6352      6355      6356      6360      6363      6364
      6356      6360      6363      6365      6356      6360      6363      6370
      6357      6356      6360      6361      6357      6356      6360      6362
      6357      6356      6360      6363      6358      6356      6360      6361
      6358      6356      6360      6362      6358      6356      6360      6363
      6359      6356      6360      6361      6359      6356      6360      6362
      6359      6356      6360      6363      6360      6363      6370      6366
      6361      6360      6363      6364      6361      6360      6363      6365
      6361      6360      6363      6370      6362      6360      6363      6364
      6362      6360      6363      6365      6362      6360      6363      6370
      6363      6370      6366      6367      6363      6370      6366      6368
      6363      6370      6366      6369      6364      6363      6370      6366
      6365      6363      6370      6366      6366      6369      6371      6372
      6366      6369      6371      6373      6366      6369      6371      6374
      6367      6366      6369      6371      6368      6366      6369      6371
      6369      6371      6374      6375      6369      6371      6374      6376
      6369      6371      6374      6382      6370      6366      6369      6371
      6371      6374      6376      6377      6371      6374      6382      6383
      6371      6374      6382      6384      6371      6374      6382      6385
      6372      6371      6374      6375      6372      6371      6374      6376
      6372      6371      6374      6382      6373      6371      6374      6375
      6373      6371      6374      6376      6373      6371      6374      6382
      6374      6376      6377      6378      6374      6376      6377      6379
      6374      6382      6385      6386      6375      6374      6376      6377
      6375      6374      6382      6383      6375      6374      6382      6384
      6375      6374      6382      6385      6376      6374      6382      6383
      6376      6374      6382      6384      6376      6374      6382      6385
      6376      6377      6379      6380      6376      6377      6379      6381
      6376      6377      6379      6391      6377      6376      6374      6382
      6377      6379      6391      6392      6377      6379      6391      6393
      6377      6379      6391      6394      6378      6377      6379      6380
      6378      6377      6379      6381      6378      6377      6379      6391
      6379      6391      6394      6395      6379      6391      6394      6396
      6379      6391      6394      6397      6380      6379      6391      6392
      6380      6379      6391      6393      6380      6379      6391      6394
      6381      6379      6391      6392      6381      6379      6391      6393
      6381      6379      6391      6394      6382      6385      6386      6387
      6382      6385      6386      6388      6383      6382      6385      6386
      6384      6382      6385      6386      6385      6386      6388      6389
      6385      6386      6388      6390      6385      6386      6388      6435
      6386      6388      6435      6436      6386      6388      6435      6437
      6386      6388      6435      6438      6387      6386      6388      6389
      6387      6386      6388      6390      6387      6386      6388      6435
      6388      6435      6438      6439      6388      6435      6438      6440
      6388      6435      6438      6441      6389      6388      6435      6436
      6389      6388      6435      6437      6389      6388      6435      6438
      6390      6388      6435      6436      6390      6388      6435      6437
      6390      6388      6435      6438      6391      6394      6397      6398
      6391      6394      6397      6399      6391      6394      6397      6400
      6392      6391      6394      6395      6392      6391      6394      6396
      6392      6391      6394      6397      6393      6391      6394      6395
      6393      6391      6394      6396      6393      6391      6394      6397
      6394      6397      6400      6401      6394      6397      6400      6402
      6394      6397      6400      6403      6395      6394      6397      6398
      6395      6394      6397      6399      6395      6394      6397      6400
      6396      6394      6397      6398      6396      6394      6397      6399
      6396      6394      6397      6400      6397      6400      6403      6404
      6397      6400      6403      6405      6397      6400      6403      6406
      6398      6397      6400      6401      6398      6397      6400      6402
      6398      6397      6400      6403      6399      6397      6400      6401
      6399      6397      6400      6402      6399      6397      6400      6403
      6400      6403      6406      6407      6400      6403      6406      6408
      6400      6403      6406      6409      6401      6400      6403      6404
      6401      6400      6403      6405      6401      6400      6403      6406
      6402      6400      6403      6404      6402      6400      6403      6405
      6402      6400      6403      6406      6403      6406      6409      6410
      6403      6406      6409      6411      6403      6406      6409      6414
      6404      6403      6406      6407      6404      6403      6406      6408
      6404      6403      6406      6409      6405      6403      6406      6407
      6405      6403      6406      6408      6405      6403      6406      6409
      6406      6409      6411      6412      6406      6409      6411      6413
      6406      6409      6411      6414      6406      6409      6414      6411
      6406      6409      6414      6415      6406      6409      6414      6416
      6407      6406      6409      6410      6407      6406      6409      6411
      6407      6406      6409      6414      6408      6406      6409      6410
      6408      6406      6409      6411      6408      6406      6409      6414
      6409      6411      6414      6415      6409      6411      6414      6416
      6409      6414      6411      6412      6409      6414      6411      6413
      6409      6414      6416      6417      6409      6414      6416      6418
      6409      6414      6416      6419      6410      6409      6411      6412
      6410      6409      6411      6413      6410      6409      6411      6414
      6410      6409      6414      6411      6410      6409      6414      6415
      6410      6409      6414      6416      6411      6409      6414      6415
      6411      6409      6414      6416      6411      6414      6416      6417
      6411      6414      6416      6418      6411      6414      6416      6419
      6412      6411      6409      6414      6412      6411      6414      6415
      6412      6411      6414      6416      6413      6411      6409      6414
      6413      6411      6414      6415      6413      6411      6414      6416
      6414      6416      6419      6420      6414      6416      6419      6421
      6414      6416      6419      6422      6415      6414      6416      6417
      6415      6414      6416      6418      6415      6414      6416      6419
      6416      6419      6422      6423      6416      6419      6422      6424
      6416      6419      6422      6425      6417      6416      6419      6420
      6417      6416      6419      6421      6417      6416      6419      6422
      6418      6416      6419      6420      6418      6416      6419      6421
      6418      6416      6419      6422      6419      6422      6425      6426
      6419      6422      6425      6427      6419      6422      6425      6428
      6420      6419      6422      6423      6420      6419      6422      6424
      6420      6419      6422      6425      6421      6419      6422      6423
      6421      6419      6422      6424      6421      6419      6422      6425
      6422      6425      6428      6429      6422      6425      6428      6430
      6422      6425      6428      6431      6423      6422      6425      6426
      6423      6422      6425      6427      6423      6422      6425      6428
      6424      6422      6425      6426      6424      6422      6425      6427
      6424      6422      6425      6428      6425      6428      6431      6432
      6425      6428      6431      6433      6425      6428      6431      6434
      6426      6425      6428      6429      6426      6425      6428      6430
      6426      6425      6428      6431      6427      6425      6428      6429
      6427      6425      6428      6430      6427      6425      6428      6431
      6429      6428      6431      6432      6429      6428      6431      6433
      6429      6428      6431      6434      6430      6428      6431      6432
      6430      6428      6431      6433      6430      6428      6431      6434
      6435      6438      6441      6442      6435      6438      6441      6443
      6435      6438      6441      6444      6436      6435      6438      6439
      6436      6435      6438      6440      6436      6435      6438      6441
      6437      6435      6438      6439      6437      6435      6438      6440
      6437      6435      6438      6441      6438      6441      6444      6445
      6438      6441      6444      6446      6438      6441      6444      6447
      6439      6438      6441      6442      6439      6438      6441      6443
      6439      6438      6441      6444      6440      6438      6441      6442
      6440      6438      6441      6443      6440      6438      6441      6444
      6441      6444      6447      6448      6441      6444      6447      6449
      6441      6444      6447      6450      6442      6441      6444      6445
      6442      6441      6444      6446      6442      6441      6444      6447
      6443      6441      6444      6445      6443      6441      6444      6446
      6443      6441      6444      6447      6444      6447      6450      6451
      6444      6447      6450      6452      6444      6447      6450      6453
      6445      6444      6447      6448      6445      6444      6447      6449
      6445      6444      6447      6450      6446      6444      6447      6448
      6446      6444      6447      6449      6446      6444      6447      6450
      6447      6450      6453      6454      6447      6450      6453      6455
      6447      6450      6453      6456      6448      6447      6450      6451
      6448      6447      6450      6452      6448      6447      6450      6453
      6449      6447      6450      6451      6449      6447      6450      6452
      6449      6447      6450      6453      6450      6453      6456      6457
      6450      6453      6456      6458      6450      6453      6456      6459
      6451      6450      6453      6454      6451      6450      6453      6455
      6451      6450      6453      6456      6452      6450      6453      6454
      6452      6450      6453      6455      6452      6450      6453      6456
      6453      6456      6459      6460      6453      6456      6459      6461
      6453      6456      6459      6462      6454      6453      6456      6457
      6454      6453      6456      6458      6454      6453      6456      6459
      6455      6453      6456      6457      6455      6453      6456      6458
      6455      6453      6456      6459      6456      6459      6462      6463
      6456      6459      6462      6464      6456      6459      6462      6465
      6457      6456      6459      6460      6457      6456      6459      6461
      6457      6456      6459      6462      6458      6456      6459      6460
      6458      6456      6459      6461      6458      6456      6459      6462
      6459      6462      6465      6466      6459      6462      6465      6467
      6459      6462      6465      6468      6460      6459      6462      6463
      6460      6459      6462      6464      6460      6459      6462      6465
      6461      6459      6462      6463      6461      6459      6462      6464
      6461      6459      6462      6465      6462      6465      6468      6469
      6462      6465      6468      6470      6462      6465      6468      6471
      6463      6462      6465      6466      6463      6462      6465      6467
      6463      6462      6465      6468      6464      6462      6465      6466
      6464      6462      6465      6467      6464      6462      6465      6468
      6465      6468      6471      6472      6465      6468      6471      6473
      6465      6468      6471      6474      6466      6465      6468      6469
      6466      6465      6468      6470      6466      6465      6468      6471
      6467      6465      6468      6469      6467      6465      6468      6470
      6467      6465      6468      6471      6468      6471      6474      6475
      6468      6471      6474      6476      6468      6471      6474      6477
      6469      6468      6471      6472      6469      6468      6471      6473
      6469      6468      6471      6474      6470      6468      6471      6472
      6470      6468      6471      6473      6470      6468      6471      6474
      6472      6471      6474      6475      6472      6471      6474      6476
      6472      6471      6474      6477      6473      6471      6474      6475
      6473      6471      6474      6476      6473      6471      6474      6477
      6478      6483      6485      6486      6478      6483      6487      6488
      6478      6483      6487      6489      6478      6483      6487      6494
      6479      6478      6481      6482      6479      6478      6483      6484
      6479      6478      6483      6485      6479      6478      6483      6487
      6480      6478      6481      6482      6480      6478      6483      6484
      6480      6478      6483      6485      6480      6478      6483      6487
      6481      6478      6483      6484      6481      6478      6483      6485
      6481      6478      6483      6487      6482      6481      6478      6483
      6483      6487      6494      6490      6484      6483      6485      6486
      6484      6483      6487      6488      6484      6483      6487      6489
      6484      6483      6487      6494      6485      6483      6487      6488
      6485      6483      6487      6489      6485      6483      6487      6494
      6486      6485      6483      6487      6487      6494      6490      6491
      6487      6494      6490      6492      6487      6494      6490      6493
      6488      6487      6494      6490      6489      6487      6494      6490
      6490      6493      6495      6496      6490      6493      6495      6497
      6490      6493      6495      6498      6491      6490      6493      6495
      6492      6490      6493      6495      6493      6495      6498      6499
      6493      6495      6498      6500      6493      6495      6498      6506
      6494      6490      6493      6495      6495      6498      6500      6501
      6495      6498      6506      6507      6495      6498      6506      6508
      6495      6498      6506      6509      6496      6495      6498      6499
      6496      6495      6498      6500      6496      6495      6498      6506
      6497      6495      6498      6499      6497      6495      6498      6500
      6497      6495      6498      6506      6498      6500      6501      6502
      6498      6500      6501      6503      6498      6506      6509      6510
      6499      6498      6500      6501      6499      6498      6506      6507
      6499      6498      6506      6508      6499      6498      6506      6509
      6500      6498      6506      6507      6500      6498      6506      6508
      6500      6498      6506      6509      6500      6501      6503      6504
      6500      6501      6503      6505      6500      6501      6503      6515
      6501      6500      6498      6506      6501      6503      6515      6516
      6501      6503      6515      6517      6501      6503      6515      6518
      6502      6501      6503      6504      6502      6501      6503      6505
      6502      6501      6503      6515      6503      6515      6518      6519
      6503      6515      6518      6520      6503      6515      6518      6521
      6504      6503      6515      6516      6504      6503      6515      6517
      6504      6503      6515      6518      6505      6503      6515      6516
      6505      6503      6515      6517      6505      6503      6515      6518
      6506      6509      6510      6511      6506      6509      6510      6512
      6507      6506      6509      6510      6508      6506      6509      6510
      6509      6510      6512      6513      6509      6510      6512      6514
      6509      6510      6512      6559      6510      6512      6559      6560
      6510      6512      6559      6561      6510      6512      6559      6562
      6511      6510      6512      6513      6511      6510      6512      6514
      6511      6510      6512      6559      6512      6559      6562      6563
      6512      6559      6562      6564      6512      6559      6562      6565
      6513      6512      6559      6560      6513      6512      6559      6561
      6513      6512      6559      6562      6514      6512      6559      6560
      6514      6512      6559      6561      6514      6512      6559      6562
      6515      6518      6521      6522      6515      6518      6521      6523
      6515      6518      6521      6524      6516      6515      6518      6519
      6516      6515      6518      6520      6516      6515      6518      6521
      6517      6515      6518      6519      6517      6515      6518      6520
      6517      6515      6518      6521      6518      6521      6524      6525
      6518      6521      6524      6526      6518      6521      6524      6527
      6519      6518      6521      6522      6519      6518      6521      6523
      6519      6518      6521      6524      6520      6518      6521      6522
      6520      6518      6521      6523      6520      6518      6521      6524
      6521      6524      6527      6528      6521      6524      6527      6529
      6521      6524      6527      6530      6522      6521      6524      6525
      6522      6521      6524      6526      6522      6521      6524      6527
      6523      6521      6524      6525      6523      6521      6524      6526
      6523      6521      6524      6527      6524      6527      6530      6531
      6524      6527      6530      6532      6524      6527      6530      6533
      6525      6524      6527      6528      6525      6524      6527      6529
      6525      6524      6527      6530      6526      6524      6527      6528
      6526      6524      6527      6529      6526      6524      6527      6530
      6527      6530      6533      6534      6527      6530      6533      6535
      6527      6530      6533      6538      6528      6527      6530      6531
      6528      6527      6530      6532      6528      6527      6530      6533
      6529      6527      6530      6531      6529      6527      6530      6532
      6529      6527      6530      6533      6530      6533      6535      6536
      6530      6533      6535      6537      6530      6533      6535      6538
      6530      6533      6538      6535      6530      6533      6538      6539
      6530      6533      6538      6540      6531      6530      6533      6534
      6531      6530      6533      6535      6531      6530      6533      6538
      6532      6530      6533      6534      6532      6530      6533      6535
      6532      6530      6533      6538      6533      6535      6538      6539
      6533      6535      6538      6540      6533      6538      6535      6536
      6533      6538      6535      6537      6533      6538      6540      6541
      6533      6538      6540      6542      6533      6538      6540      6543
      6534      6533      6535      6536      6534      6533      6535      6537
      6534      6533      6535      6538      6534      6533      6538      6535
      6534      6533      6538      6539      6534      6533      6538      6540
      6535      6533      6538      6539      6535      6533      6538      6540
      6535      6538      6540      6541      6535      6538      6540      6542
      6535      6538      6540      6543      6536      6535      6533      6538
      6536      6535      6538      6539      6536      6535      6538      6540
      6537      6535      6533      6538      6537      6535      6538      6539
      6537      6535      6538      6540      6538      6540      6543      6544
      6538      6540      6543      6545      6538      6540      6543      6546
      6539      6538      6540      6541      6539      6538      6540      6542
      6539      6538      6540      6543      6540      6543      6546      6547
      6540      6543      6546      6548      6540      6543      6546      6549
      6541      6540      6543      6544      6541      6540      6543      6545
      6541      6540      6543      6546      6542      6540      6543      6544
      6542      6540      6543      6545      6542      6540      6543      6546
      6543      6546      6549      6550      6543      6546      6549      6551
      6543      6546      6549      6552      6544      6543      6546      6547
      6544      6543      6546      6548      6544      6543      6546      6549
      6545      6543      6546      6547      6545      6543      6546      6548
      6545      6543      6546      6549      6546      6549      6552      6553
      6546      6549      6552      6554      6546      6549      6552      6555
      6547      6546      6549      6550      6547      6546      6549      6551
      6547      6546      6549      6552      6548      6546      6549      6550
      6548      6546      6549      6551      6548      6546      6549      6552
      6549      6552      6555      6556      6549      6552      6555      6557
      6549      6552      6555      6558      6550      6549      6552      6553
      6550      6549      6552      6554      6550      6549      6552      6555
      6551      6549      6552      6553      6551      6549      6552      6554
      6551      6549      6552      6555      6553      6552      6555      6556
      6553      6552      6555      6557      6553      6552      6555      6558
      6554      6552      6555      6556      6554      6552      6555      6557
      6554      6552      6555      6558      6559      6562      6565      6566
      6559      6562      6565      6567      6559      6562      6565      6568
      6560      6559      6562      6563      6560      6559      6562      6564
      6560      6559      6562      6565      6561      6559      6562      6563
      6561      6559      6562      6564      6561      6559      6562      6565
      6562      6565      6568      6569      6562      6565      6568      6570
      6562      6565      6568      6571      6563      6562      6565      6566
      6563      6562      6565      6567      6563      6562      6565      6568
      6564      6562      6565      6566      6564      6562      6565      6567
      6564      6562      6565      6568      6565      6568      6571      6572
      6565      6568      6571      6573      6565      6568      6571      6574
      6566      6565      6568      6569      6566      6565      6568      6570
      6566      6565      6568      6571      6567      6565      6568      6569
      6567      6565      6568      6570      6567      6565      6568      6571
      6568      6571      6574      6575      6568      6571      6574      6576
      6568      6571      6574      6577      6569      6568      6571      6572
      6569      6568      6571      6573      6569      6568      6571      6574
      6570      6568      6571      6572      6570      6568      6571      6573
      6570      6568      6571      6574      6571      6574      6577      6578
      6571      6574      6577      6579      6571      6574      6577      6580
      6572      6571      6574      6575      6572      6571      6574      6576
      6572      6571      6574      6577      6573      6571      6574      6575
      6573      6571      6574      6576      6573      6571      6574      6577
      6574      6577      6580      6581      6574      6577      6580      6582
      6574      6577      6580      6583      6575      6574      6577      6578
      6575      6574      6577      6579      6575      6574      6577      6580
      6576      6574      6577      6578      6576      6574      6577      6579
      6576      6574      6577      6580      6577      6580      6583      6584
      6577      6580      6583      6585      6577      6580      6583      6586
      6578      6577      6580      6581      6578      6577      6580      6582
      6578      6577      6580      6583      6579      6577      6580      6581
      6579      6577      6580      6582      6579      6577      6580      6583
      6580      6583      6586      6587      6580      6583      6586      6588
      6580      6583      6586      6589      6581      6580      6583      6584
      6581      6580      6583      6585      6581      6580      6583      6586
      6582      6580      6583      6584      6582      6580      6583      6585
      6582      6580      6583      6586      6583      6586      6589      6590
      6583      6586      6589      6591      6583      6586      6589      6592
      6584      6583      6586      6587      6584      6583      6586      6588
      6584      6583      6586      6589      6585      6583      6586      6587
      6585      6583      6586      6588      6585      6583      6586      6589
      6586      6589      6592      6593      6586      6589      6592      6594
      6586      6589      6592      6595      6587      6586      6589      6590
      6587      6586      6589      6591      6587      6586      6589      6592
      6588      6586      6589      6590      6588      6586      6589      6591
      6588      6586      6589      6592      6589      6592      6595      6596
      6589      6592      6595      6597      6589      6592      6595      6598
      6590      6589      6592      6593      6590      6589      6592      6594
      6590      6589      6592      6595      6591      6589      6592      6593
      6591      6589      6592      6594      6591      6589      6592      6595
      6592      6595      6598      6599      6592      6595      6598      6600
      6592      6595      6598      6601      6593      6592      6595      6596
      6593      6592      6595      6597      6593      6592      6595      6598
      6594      6592      6595      6596      6594      6592      6595      6597
      6594      6592      6595      6598      6596      6595      6598      6599
      6596      6595      6598      6600      6596      6595      6598      6601
      6597      6595      6598      6599      6597      6595      6598      6600
      6597      6595      6598      6601      6602      6607      6609      6610
      6602      6607      6611      6612      6602      6607      6611      6613
      6602      6607      6611      6618      6603      6602      6605      6606
      6603      6602      6607      6608      6603      6602      6607      6609
      6603      6602      6607      6611      6604      6602      6605      6606
      6604      6602      6607      6608      6604      6602      6607      6609
      6604      6602      6607      6611      6605      6602      6607      6608
      6605      6602      6607      6609      6605      6602      6607      6611
      6606      6605      6602      6607      6607      6611      6618      6614
      6608      6607      6609      6610      6608      6607      6611      6612
      6608      6607      6611      6613      6608      6607      6611      6618
      6609      6607      6611      6612      6609      6607      6611      6613
      6609      6607      6611      6618      6610      6609      6607      6611
      6611      6618      6614      6615      6611      6618      6614      6616
      6611      6618      6614      6617      6612      6611      6618      6614
      6613      6611      6618      6614      6614      6617      6619      6620
      6614      6617      6619      6621      6614      6617      6619      6622
      6615      6614      6617      6619      6616      6614      6617      6619
      6617      6619      6622      6623      6617      6619      6622      6624
      6617      6619      6622      6630      6618      6614      6617      6619
      6619      6622      6624      6625      6619      6622      6630      6631
      6619      6622      6630      6632      6619      6622      6630      6633
      6620      6619      6622      6623      6620      6619      6622      6624
      6620      6619      6622      6630      6621      6619      6622      6623
      6621      6619      6622      6624      6621      6619      6622      6630
      6622      6624      6625      6626      6622      6624      6625      6627
      6622      6630      6633      6634      6623      6622      6624      6625
      6623      6622      6630      6631      6623      6622      6630      6632
      6623      6622      6630      6633      6624      6622      6630      6631
      6624      6622      6630      6632      6624      6622      6630      6633
      6624      6625      6627      6628      6624      6625      6627      6629
      6624      6625      6627      6639      6625      6624      6622      6630
      6625      6627      6639      6640      6625      6627      6639      6641
      6625      6627      6639      6642      6626      6625      6627      6628
      6626      6625      6627      6629      6626      6625      6627      6639
      6627      6639      6642      6643      6627      6639      6642      6644
      6627      6639      6642      6645      6628      6627      6639      6640
      6628      6627      6639      6641      6628      6627      6639      6642
      6629      6627      6639      6640      6629      6627      6639      6641
      6629      6627      6639      6642      6630      6633      6634      6635
      6630      6633      6634      6636      6631      6630      6633      6634
      6632      6630      6633      6634      6633      6634      6636      6637
      6633      6634      6636      6638      6633      6634      6636      6683
      6634      6636      6683      6684      6634      6636      6683      6685
      6634      6636      6683      6686      6635      6634      6636      6637
      6635      6634      6636      6638      6635      6634      6636      6683
      6636      6683      6686      6687      6636      6683      6686      6688
      6636      6683      6686      6689      6637      6636      6683      6684
      6637      6636      6683      6685      6637      6636      6683      6686
      6638      6636      6683      6684      6638      6636      6683      6685
      6638      6636      6683      6686      6639      6642      6645      6646
      6639      6642      6645      6647      6639      6642      6645      6648
      6640      6639      6642      6643      6640      6639      6642      6644
      6640      6639      6642      6645      6641      6639      6642      6643
      6641      6639      6642      6644      6641      6639      6642      6645
      6642      6645      6648      6649      6642      6645      6648      6650
      6642      6645      6648      6651      6643      6642      6645      6646
      6643      6642      6645      6647      6643      6642      6645      6648
      6644      6642      6645      6646      6644      6642      6645      6647
      6644      6642      6645      6648      6645      6648      6651      6652
      6645      6648      6651      6653      6645      6648      6651      6654
      6646      6645      6648      6649      6646      6645      6648      6650
      6646      6645      6648      6651      6647      6645      6648      6649
      6647      6645      6648      6650      6647      6645      6648      6651
      6648      6651      6654      6655      6648      6651      6654      6656
      6648      6651      6654      6657      6649      6648      6651      6652
      6649      6648      6651      6653      6649      6648      6651      6654
      6650      6648      6651      6652      6650      6648      6651      6653
      6650      6648      6651      6654      6651      6654      6657      6658
      6651      6654      6657      6659      6651      6654      6657      6662
      6652      6651      6654      6655      6652      6651      6654      6656
      6652      6651      6654      6657      6653      6651      6654      6655
      6653      6651      6654      6656      6653      6651      6654      6657
      6654      6657      6659      6660      6654      6657      6659      6661
      6654      6657      6659      6662      6654      6657      6662      6659
      6654      6657      6662      6663      6654      6657      6662      6664
      6655      6654      6657      6658      6655      6654      6657      6659
      6655      6654      6657      6662      6656      6654      6657      6658
      6656      6654      6657      6659      6656      6654      6657      6662
      6657      6659      6662      6663      6657      6659      6662      6664
      6657      6662      6659      6660      6657      6662      6659      6661
      6657      6662      6664      6665      6657      6662      6664      6666
      6657      6662      6664      6667      6658      6657      6659      6660
      6658      6657      6659      6661      6658      6657      6659      6662
      6658      6657      6662      6659      6658      6657      6662      6663
      6658      6657      6662      6664      6659      6657      6662      6663
      6659      6657      6662      6664      6659      6662      6664      6665
      6659      6662      6664      6666      6659      6662      6664      6667
      6660      6659      6657      6662      6660      6659      6662      6663
      6660      6659      6662      6664      6661      6659      6657      6662
      6661      6659      6662      6663      6661      6659      6662      6664
      6662      6664      6667      6668      6662      6664      6667      6669
      6662      6664      6667      6670      6663      6662      6664      6665
      6663      6662      6664      6666      6663      6662      6664      6667
      6664      6667      6670      6671      6664      6667      6670      6672
      6664      6667      6670      6673      6665      6664      6667      6668
      6665      6664      6667      6669      6665      6664      6667      6670
      6666      6664      6667      6668      6666      6664      6667      6669
      6666      6664      6667      6670      6667      6670      6673      6674
      6667      6670      6673      6675      6667      6670      6673      6676
      6668      6667      6670      6671      6668      6667      6670      6672
      6668      6667      6670      6673      6669      6667      6670      6671
      6669      6667      6670      6672      6669      6667      6670      6673
      6670      6673      6676      6677      6670      6673      6676      6678
      6670      6673      6676      6679      6671      6670      6673      6674
      6671      6670      6673      6675      6671      6670      6673      6676
      6672      6670      6673      6674      6672      6670      6673      6675
      6672      6670      6673      6676      6673      6676      6679      6680
      6673      6676      6679      6681      6673      6676      6679      6682
      6674      6673      6676      6677      6674      6673      6676      6678
      6674      6673      6676      6679      6675      6673      6676      6677
      6675      6673      6676      6678      6675      6673      6676      6679
      6677      6676      6679      6680      6677      6676      6679      6681
      6677      6676      6679      6682      6678      6676      6679      6680
      6678      6676      6679      6681      6678      6676      6679      6682
      6683      6686      6689      6690      6683      6686      6689      6691
      6683      6686      6689      6692      6684      6683      6686      6687
      6684      6683      6686      6688      6684      6683      6686      6689
      6685      6683      6686      6687      6685      6683      6686      6688
      6685      6683      6686      6689      6686      6689      6692      6693
      6686      6689      6692      6694      6686      6689      6692      6695
      6687      6686      6689      6690      6687      6686      6689      6691
      6687      6686      6689      6692      6688      6686      6689      6690
      6688      6686      6689      6691      6688      6686      6689      6692
      6689      6692      6695      6696      6689      6692      6695      6697
      6689      6692      6695      6698      6690      6689      6692      6693
      6690      6689      6692      6694      6690      6689      6692      6695
      6691      6689      6692      6693      6691      6689      6692      6694
      6691      6689      6692      6695      6692      6695      6698      6699
      6692      6695      6698      6700      6692      6695      6698      6701
      6693      6692      6695      6696      6693      6692      6695      6697
      6693      6692      6695      6698      6694      6692      6695      6696
      6694      6692      6695      6697      6694      6692      6695      6698
      6695      6698      6701      6702      6695      6698      6701      6703
      6695      6698      6701      6704      6696      6695      6698      6699
      6696      6695      6698      6700      6696      6695      6698      6701
      6697      6695      6698      6699      6697      6695      6698      6700
      6697      6695      6698      6701      6698      6701      6704      6705
      6698      6701      6704      6706      6698      6701      6704      6707
      6699      6698      6701      6702      6699      6698      6701      6703
      6699      6698      6701      6704      6700      6698      6701      6702
      6700      6698      6701      6703      6700      6698      6701      6704
      6701      6704      6707      6708      6701      6704      6707      6709
      6701      6704      6707      6710      6702      6701      6704      6705
      6702      6701      6704      6706      6702      6701      6704      6707
      6703      6701      6704      6705      6703      6701      6704      6706
      6703      6701      6704      6707      6704      6707      6710      6711
      6704      6707      6710      6712      6704      6707      6710      6713
      6705      6704      6707      6708      6705      6704      6707      6709
      6705      6704      6707      6710      6706      6704      6707      6708
      6706      6704      6707      6709      6706      6704      6707      6710
      6707      6710      6713      6714      6707      6710      6713      6715
      6707      6710      6713      6716      6708      6707      6710      6711
      6708      6707      6710      6712      6708      6707      6710      6713
      6709      6707      6710      6711      6709      6707      6710      6712
      6709      6707      6710      6713      6710      6713      6716      6717
      6710      6713      6716      6718      6710      6713      6716      6719
      6711      6710      6713      6714      6711      6710      6713      6715
      6711      6710      6713      6716      6712      6710      6713      6714
      6712      6710      6713      6715      6712      6710      6713      6716
      6713      6716      6719      6720      6713      6716      6719      6721
      6713      6716      6719      6722      6714      6713      6716      6717
      6714      6713      6716      6718      6714      6713      6716      6719
      6715      6713      6716      6717      6715      6713      6716      6718
      6715      6713      6716      6719      6716      6719      6722      6723
      6716      6719      6722      6724      6716      6719      6722      6725
      6717      6716      6719      6720      6717      6716      6719      6721
      6717      6716      6719      6722      6718      6716      6719      6720
      6718      6716      6719      6721      6718      6716      6719      6722
      6720      6719      6722      6723      6720      6719      6722      6724
      6720      6719      6722      6725      6721      6719      6722      6723
      6721      6719      6722      6724      6721      6719      6722      6725
      6726      6730      6733      6734      6726      6730      6733      6735
      6726      6730      6733      6740      6727      6726      6730      6731
      6727      6726      6730      6732      6727      6726      6730      6733
      6728      6726      6730      6731      6728      6726      6730      6732
      6728      6726      6730      6733      6729      6726      6730      6731
      6729      6726      6730      6732      6729      6726      6730      6733
      6730      6733      6740      6736      6731      6730      6733      6734
      6731      6730      6733      6735      6731      6730      6733      6740
      6732      6730      6733      6734      6732      6730      6733      6735
      6732      6730      6733      6740      6733      6740      6736      6737
      6733      6740      6736      6738      6733      6740      6736      6739
      6734      6733      6740      6736      6735      6733      6740      6736
      6736      6739      6741      6742      6736      6739      6741      6743
      6736      6739      6741      6744      6737      6736      6739      6741
      6738      6736      6739      6741      6739      6741      6744      6745
      6739      6741      6744      6746      6739      6741      6744      6752
      6740      6736      6739      6741      6741      6744      6746      6747
      6741      6744      6752      6753      6741      6744      6752      6754
      6741      6744      6752      6755      6742      6741      6744      6745
      6742      6741      6744      6746      6742      6741      6744      6752
      6743      6741      6744      6745      6743      6741      6744      6746
      6743      6741      6744      6752      6744      6746      6747      6748
      6744      6746      6747      6749      6744      6752      6755      6756
      6745      6744      6746      6747      6745      6744      6752      6753
      6745      6744      6752      6754      6745      6744      6752      6755
      6746      6744      6752      6753      6746      6744      6752      6754
      6746      6744      6752      6755      6746      6747      6749      6750
      6746      6747      6749      6751      6746      6747      6749      6761
      6747      6746      6744      6752      6747      6749      6761      6762
      6747      6749      6761      6763      6747      6749      6761      6764
      6748      6747      6749      6750      6748      6747      6749      6751
      6748      6747      6749      6761      6749      6761      6764      6765
      6749      6761      6764      6766      6749      6761      6764      6767
      6750      6749      6761      6762      6750      6749      6761      6763
      6750      6749      6761      6764      6751      6749      6761      6762
      6751      6749      6761      6763      6751      6749      6761      6764
      6752      6755      6756      6757      6752      6755      6756      6758
      6753      6752      6755      6756      6754      6752      6755      6756
      6755      6756      6758      6759      6755      6756      6758      6760
      6755      6756      6758      6805      6756      6758      6805      6806
      6756      6758      6805      6807      6756      6758      6805      6808
      6757      6756      6758      6759      6757      6756      6758      6760
      6757      6756      6758      6805      6758      6805      6808      6809
      6758      6805      6808      6810      6758      6805      6808      6811
      6759      6758      6805      6806      6759      6758      6805      6807
      6759      6758      6805      6808      6760      6758      6805      6806
      6760      6758      6805      6807      6760      6758      6805      6808
      6761      6764      6767      6768      6761      6764      6767      6769
      6761      6764      6767      6770      6762      6761      6764      6765
      6762      6761      6764      6766      6762      6761      6764      6767
      6763      6761      6764      6765      6763      6761      6764      6766
      6763      6761      6764      6767      6764      6767      6770      6771
      6764      6767      6770      6772      6764      6767      6770      6773
      6765      6764      6767      6768      6765      6764      6767      6769
      6765      6764      6767      6770      6766      6764      6767      6768
      6766      6764      6767      6769      6766      6764      6767      6770
      6767      6770      6773      6774      6767      6770      6773      6775
      6767      6770      6773      6776      6768      6767      6770      6771
      6768      6767      6770      6772      6768      6767      6770      6773
      6769      6767      6770      6771      6769      6767      6770      6772
      6769      6767      6770      6773      6770      6773      6776      6777
      6770      6773      6776      6778      6770      6773      6776      6779
      6771      6770      6773      6774      6771      6770      6773      6775
      6771      6770      6773      6776      6772      6770      6773      6774
      6772      6770      6773      6775      6772      6770      6773      6776
      6773      6776      6779      6780      6773      6776      6779      6781
      6773      6776      6779      6784      6774      6773      6776      6777
      6774      6773      6776      6778      6774      6773      6776      6779
      6775      6773      6776      6777      6775      6773      6776      6778
      6775      6773      6776      6779      6776      6779      6781      6782
      6776      6779      6781      6783      6776      6779      6781      6784
      6776      6779      6784      6781      6776      6779      6784      6785
      6776      6779      6784      6786      6777      6776      6779      6780
      6777      6776      6779      6781      6777      6776      6779      6784
      6778      6776      6779      6780      6778      6776      6779      6781
      6778      6776      6779      6784      6779      6781      6784      6785
      6779      6781      6784      6786      6779      6784      6781      6782
      6779      6784      6781      6783      6779      6784      6786      6787
      6779      6784      6786      6788      6779      6784      6786      6789
      6780      6779      6781      6782      6780      6779      6781      6783
      6780      6779      6781      6784      6780      6779      6784      6781
      6780      6779      6784      6785      6780      6779      6784      6786
      6781      6779      6784      6785      6781      6779      6784      6786
      6781      6784      6786      6787      6781      6784      6786      6788
      6781      6784      6786      6789      6782      6781      6779      6784
      6782      6781      6784      6785      6782      6781      6784      6786
      6783      6781      6779      6784      6783      6781      6784      6785
      6783      6781      6784      6786      6784      6786      6789      6790
      6784      6786      6789      6791      6784      6786      6789      6792
      6785      6784      6786      6787      6785      6784      6786      6788
      6785      6784      6786      6789      6786      6789      6792      6793
      6786      6789      6792      6794      6786      6789      6792      6795
      6787      6786      6789      6790      6787      6786      6789      6791
      6787      6786      6789      6792      6788      6786      6789      6790
      6788      6786      6789      6791      6788      6786      6789      6792
      6789      6792      6795      6796      6789      6792      6795      6797
      6789      6792      6795      6798      6790      6789      6792      6793
      6790      6789      6792      6794      6790      6789      6792      6795
      6791      6789      6792      6793      6791      6789      6792      6794
      6791      6789      6792      6795      6792      6795      6798      6799
      6792      6795      6798      6800      6792      6795      6798      6801
      6793      6792      6795      6796      6793      6792      6795      6797
      6793      6792      6795      6798      6794      6792      6795      6796
      6794      6792      6795      6797      6794      6792      6795      6798
      6795      6798      6801      6802      6795      6798      6801      6803
      6795      6798      6801      6804      6796      6795      6798      6799
      6796      6795      6798      6800      6796      6795      6798      6801
      6797      6795      6798      6799      6797      6795      6798      6800
      6797      6795      6798      6801      6799      6798      6801      6802
      6799      6798      6801      6803      6799      6798      6801      6804
      6800      6798      6801      6802      6800      6798      6801      6803
      6800      6798      6801      6804      6805      6808      6811      6812
      6805      6808      6811      6813      6805      6808      6811      6814
      6806      6805      6808      6809      6806      6805      6808      6810
      6806      6805      6808      6811      6807      6805      6808      6809
      6807      6805      6808      6810      6807      6805      6808      6811
      6808      6811      6814      6815      6808      6811      6814      6816
      6808      6811      6814      6817      6809      6808      6811      6812
      6809      6808      6811      6813      6809      6808      6811      6814
      6810      6808      6811      6812      6810      6808      6811      6813
      6810      6808      6811      6814      6811      6814      6817      6818
      6811      6814      6817      6819      6811      6814      6817      6820
      6812      6811      6814      6815      6812      6811      6814      6816
      6812      6811      6814      6817      6813      6811      6814      6815
      6813      6811      6814      6816      6813      6811      6814      6817
      6814      6817      6820      6821      6814      6817      6820      6822
      6814      6817      6820      6823      6815      6814      6817      6818
      6815      6814      6817      6819      6815      6814      6817      6820
      6816      6814      6817      6818      6816      6814      6817      6819
      6816      6814      6817      6820      6817      6820      6823      6824
      6817      6820      6823      6825      6817      6820      6823      6826
      6818      6817      6820      6821      6818      6817      6820      6822
      6818      6817      6820      6823      6819      6817      6820      6821
      6819      6817      6820      6822      6819      6817      6820      6823
      6820      6823      6826      6827      6820      6823      6826      6828
      6820      6823      6826      6829      6821      6820      6823      6824
      6821      6820      6823      6825      6821      6820      6823      6826
      6822      6820      6823      6824      6822      6820      6823      6825
      6822      6820      6823      6826      6823      6826      6829      6830
      6823      6826      6829      6831      6823      6826      6829      6832
      6824      6823      6826      6827      6824      6823      6826      6828
      6824      6823      6826      6829      6825      6823      6826      6827
      6825      6823      6826      6828      6825      6823      6826      6829
      6826      6829      6832      6833      6826      6829      6832      6834
      6826      6829      6832      6835      6827      6826      6829      6830
      6827      6826      6829      6831      6827      6826      6829      6832
      6828      6826      6829      6830      6828      6826      6829      6831
      6828      6826      6829      6832      6829      6832      6835      6836
      6829      6832      6835      6837      6829      6832      6835      6838
      6830      6829      6832      6833      6830      6829      6832      6834
      6830      6829      6832      6835      6831      6829      6832      6833
      6831      6829      6832      6834      6831      6829      6832      6835
      6832      6835      6838      6839      6832      6835      6838      6840
      6832      6835      6838      6841      6833      6832      6835      6836
      6833      6832      6835      6837      6833      6832      6835      6838
      6834      6832      6835      6836      6834      6832      6835      6837
      6834      6832      6835      6838      6835      6838      6841      6842
      6835      6838      6841      6843      6835      6838      6841      6844
      6836      6835      6838      6839      6836      6835      6838      6840
      6836      6835      6838      6841      6837      6835      6838      6839
      6837      6835      6838      6840      6837      6835      6838      6841
      6839      6838      6841      6842      6839      6838      6841      6843
      6839      6838      6841      6844      6840      6838      6841      6842
      6840      6838      6841      6843      6840      6838      6841      6844
      6845      6849      6852      6853      6845      6849      6852      6854
      6845      6849      6852      6859      6846      6845      6849      6850
      6846      6845      6849      6851      6846      6845      6849      6852
      6847      6845      6849      6850      6847      6845      6849      6851
      6847      6845      6849      6852      6848      6845      6849      6850
      6848      6845      6849      6851      6848      6845      6849      6852
      6849      6852      6859      6855      6850      6849      6852      6853
      6850      6849      6852      6854      6850      6849      6852      6859
      6851      6849      6852      6853      6851      6849      6852      6854
      6851      6849      6852      6859      6852      6859      6855      6856
      6852      6859      6855      6857      6852      6859      6855      6858
      6853      6852      6859      6855      6854      6852      6859      6855
      6855      6858      6860      6861      6855      6858      6860      6862
      6855      6858      6860      6863      6856      6855      6858      6860
      6857      6855      6858      6860      6858      6860      6863      6864
      6858      6860      6863      6865      6858      6860      6863      6871
      6859      6855      6858      6860      6860      6863      6865      6866
      6860      6863      6871      6872      6860      6863      6871      6873
      6860      6863      6871      6874      6861      6860      6863      6864
      6861      6860      6863      6865      6861      6860      6863      6871
      6862      6860      6863      6864      6862      6860      6863      6865
      6862      6860      6863      6871      6863      6865      6866      6867
      6863      6865      6866      6868      6863      6871      6874      6875
      6864      6863      6865      6866      6864      6863      6871      6872
      6864      6863      6871      6873      6864      6863      6871      6874
      6865      6863      6871      6872      6865      6863      6871      6873
      6865      6863      6871      6874      6865      6866      6868      6869
      6865      6866      6868      6870      6865      6866      6868      6880
      6866      6865      6863      6871      6866      6868      6880      6881
      6866      6868      6880      6882      6866      6868      6880      6883
      6867      6866      6868      6869      6867      6866      6868      6870
      6867      6866      6868      6880      6868      6880      6883      6884
      6868      6880      6883      6885      6868      6880      6883      6886
      6869      6868      6880      6881      6869      6868      6880      6882
      6869      6868      6880      6883      6870      6868      6880      6881
      6870      6868      6880      6882      6870      6868      6880      6883
      6871      6874      6875      6876      6871      6874      6875      6877
      6872      6871      6874      6875      6873      6871      6874      6875
      6874      6875      6877      6878      6874      6875      6877      6879
      6874      6875      6877      6924      6875      6877      6924      6925
      6875      6877      6924      6926      6875      6877      6924      6927
      6876      6875      6877      6878      6876      6875      6877      6879
      6876      6875      6877      6924      6877      6924      6927      6928
      6877      6924      6927      6929      6877      6924      6927      6930
      6878      6877      6924      6925      6878      6877      6924      6926
      6878      6877      6924      6927      6879      6877      6924      6925
      6879      6877      6924      6926      6879      6877      6924      6927
      6880      6883      6886      6887      6880      6883      6886      6888
      6880      6883      6886      6889      6881      6880      6883      6884
      6881      6880      6883      6885      6881      6880      6883      6886
      6882      6880      6883      6884      6882      6880      6883      6885
      6882      6880      6883      6886      6883      6886      6889      6890
      6883      6886      6889      6891      6883      6886      6889      6892
      6884      6883      6886      6887      6884      6883      6886      6888
      6884      6883      6886      6889      6885      6883      6886      6887
      6885      6883      6886      6888      6885      6883      6886      6889
      6886      6889      6892      6893      6886      6889      6892      6894
      6886      6889      6892      6895      6887      6886      6889      6890
      6887      6886      6889      6891      6887      6886      6889      6892
      6888      6886      6889      6890      6888      6886      6889      6891
      6888      6886      6889      6892      6889      6892      6895      6896
      6889      6892      6895      6897      6889      6892      6895      6898
      6890      6889      6892      6893      6890      6889      6892      6894
      6890      6889      6892      6895      6891      6889      6892      6893
      6891      6889      6892      6894      6891      6889      6892      6895
      6892      6895      6898      6899      6892      6895      6898      6900
      6892      6895      6898      6903      6893      6892      6895      6896
      6893      6892      6895      6897      6893      6892      6895      6898
      6894      6892      6895      6896      6894      6892      6895      6897
      6894      6892      6895      6898      6895      6898      6900      6901
      6895      6898      6900      6902      6895      6898      6900      6903
      6895      6898      6903      6900      6895      6898      6903      6904
      6895      6898      6903      6905      6896      6895      6898      6899
      6896      6895      6898      6900      6896      6895      6898      6903
      6897      6895      6898      6899      6897      6895      6898      6900
      6897      6895      6898      6903      6898      6900      6903      6904
      6898      6900      6903      6905      6898      6903      6900      6901
      6898      6903      6900      6902      6898      6903      6905      6906
      6898      6903      6905      6907      6898      6903      6905      6908
      6899      6898      6900      6901      6899      6898      6900      6902
      6899      6898      6900      6903      6899      6898      6903      6900
      6899      6898      6903      6904      6899      6898      6903      6905
      6900      6898      6903      6904      6900      6898      6903      6905
      6900      6903      6905      6906      6900      6903      6905      6907
      6900      6903      6905      6908      6901      6900      6898      6903
      6901      6900      6903      6904      6901      6900      6903      6905
      6902      6900      6898      6903      6902      6900      6903      6904
      6902      6900      6903      6905      6903      6905      6908      6909
      6903      6905      6908      6910      6903      6905      6908      6911
      6904      6903      6905      6906      6904      6903      6905      6907
      6904      6903      6905      6908      6905      6908      6911      6912
      6905      6908      6911      6913      6905      6908      6911      6914
      6906      6905      6908      6909      6906      6905      6908      6910
      6906      6905      6908      6911      6907      6905      6908      6909
      6907      6905      6908      6910      6907      6905      6908      6911
      6908      6911      6914      6915      6908      6911      6914      6916
      6908      6911      6914      6917      6909      6908      6911      6912
      6909      6908      6911      6913      6909      6908      6911      6914
      6910      6908      6911      6912      6910      6908      6911      6913
      6910      6908      6911      6914      6911      6914      6917      6918
      6911      6914      6917      6919      6911      6914      6917      6920
      6912      6911      6914      6915      6912      6911      6914      6916
      6912      6911      6914      6917      6913      6911      6914      6915
      6913      6911      6914      6916      6913      6911      6914      6917
      6914      6917      6920      6921      6914      6917      6920      6922
      6914      6917      6920      6923      6915      6914      6917      6918
      6915      6914      6917      6919      6915      6914      6917      6920
      6916      6914      6917      6918      6916      6914      6917      6919
      6916      6914      6917      6920      6918      6917      6920      6921
      6918      6917      6920      6922      6918      6917      6920      6923
      6919      6917      6920      6921      6919      6917      6920      6922
      6919      6917      6920      6923      6924      6927      6930      6931
      6924      6927      6930      6932      6924      6927      6930      6933
      6925      6924      6927      6928      6925      6924      6927      6929
      6925      6924      6927      6930      6926      6924      6927      6928
      6926      6924      6927      6929      6926      6924      6927      6930
      6927      6930      6933      6934      6927      6930      6933      6935
      6927      6930      6933      6936      6928      6927      6930      6931
      6928      6927      6930      6932      6928      6927      6930      6933
      6929      6927      6930      6931      6929      6927      6930      6932
      6929      6927      6930      6933      6930      6933      6936      6937
      6930      6933      6936      6938      6930      6933      6936      6939
      6931      6930      6933      6934      6931      6930      6933      6935
      6931      6930      6933      6936      6932      6930      6933      6934
      6932      6930      6933      6935      6932      6930      6933      6936
      6933      6936      6939      6940      6933      6936      6939      6941
      6933      6936      6939      6942      6934      6933      6936      6937
      6934      6933      6936      6938      6934      6933      6936      6939
      6935      6933      6936      6937      6935      6933      6936      6938
      6935      6933      6936      6939      6936      6939      6942      6943
      6936      6939      6942      6944      6936      6939      6942      6945
      6937      6936      6939      6940      6937      6936      6939      6941
      6937      6936      6939      6942      6938      6936      6939      6940
      6938      6936      6939      6941      6938      6936      6939      6942
      6939      6942      6945      6946      6939      6942      6945      6947
      6939      6942      6945      6948      6940      6939      6942      6943
      6940      6939      6942      6944      6940      6939      6942      6945
      6941      6939      6942      6943      6941      6939      6942      6944
      6941      6939      6942      6945      6942      6945      6948      6949
      6942      6945      6948      6950      6942      6945      6948      6951
      6943      6942      6945      6946      6943      6942      6945      6947
      6943      6942      6945      6948      6944      6942      6945      6946
      6944      6942      6945      6947      6944      6942      6945      6948
      6945      6948      6951      6952      6945      6948      6951      6953
      6945      6948      6951      6954      6946      6945      6948      6949
      6946      6945      6948      6950      6946      6945      6948      6951
      6947      6945      6948      6949      6947      6945      6948      6950
      6947      6945      6948      6951      6948      6951      6954      6955
      6948      6951      6954      6956      6948      6951      6954      6957
      6949      6948      6951      6952      6949      6948      6951      6953
      6949      6948      6951      6954      6950      6948      6951      6952
      6950      6948      6951      6953      6950      6948      6951      6954
      6951      6954      6957      6958      6951      6954      6957      6959
      6951      6954      6957      6960      6952      6951      6954      6955
      6952      6951      6954      6956      6952      6951      6954      6957
      6953      6951      6954      6955      6953      6951      6954      6956
      6953      6951      6954      6957      6954      6957      6960      6961
      6954      6957      6960      6962      6954      6957      6960      6963
      6955      6954      6957      6958      6955      6954      6957      6959
      6955      6954      6957      6960      6956      6954      6957      6958
      6956      6954      6957      6959      6956      6954      6957      6960
      6957      6960      6963      6964      6957      6960      6963      6965
      6957      6960      6963      6966      6958      6957      6960      6961
      6958      6957      6960      6962      6958      6957      6960      6963
      6959      6957      6960      6961      6959      6957      6960      6962
      6959      6957      6960      6963      6961      6960      6963      6964
      6961      6960      6963      6965      6961      6960      6963      6966
      6962      6960      6963      6964      6962      6960      6963      6965
      6962      6960      6963      6966      6967      6971      6974      6975
      6967      6971      6974      6976      6967      6971      6974      6981
      6968      6967      6971      6972      6968      6967      6971      6973
      6968      6967      6971      6974      6969      6967      6971      6972
      6969      6967      6971      6973      6969      6967      6971      6974
      6970      6967      6971      6972      6970      6967      6971      6973
      6970      6967      6971      6974      6971      6974      6981      6977
      6972      6971      6974      6975      6972      6971      6974      6976
      6972      6971      6974      6981      6973      6971      6974      6975
      6973      6971      6974      6976      6973      6971      6974      6981
      6974      6981      6977      6978      6974      6981      6977      6979
      6974      6981      6977      6980      6975      6974      6981      6977
      6976      6974      6981      6977      6977      6980      6982      6983
      6977      6980      6982      6984      6977      6980      6982      6985
      6978      6977      6980      6982      6979      6977      6980      6982
      6980      6982      6985      6986      6980      6982      6985      6987
      6980      6982      6985      6993      6981      6977      6980      6982
      6982      6985      6987      6988      6982      6985      6993      6994
      6982      6985      6993      6995      6982      6985      6993      6996
      6983      6982      6985      6986      6983      6982      6985      6987
      6983      6982      6985      6993      6984      6982      6985      6986
      6984      6982      6985      6987      6984      6982      6985      6993
      6985      6987      6988      6989      6985      6987      6988      6990
      6985      6993      6996      6997      6986      6985      6987      6988
      6986      6985      6993      6994      6986      6985      6993      6995
      6986      6985      6993      6996      6987      6985      6993      6994
      6987      6985      6993      6995      6987      6985      6993      6996
      6987      6988      6990      6991      6987      6988      6990      6992
      6987      6988      6990      7002      6988      6987      6985      6993
      6988      6990      7002      7003      6988      6990      7002      7004
      6988      6990      7002      7005      6989      6988      6990      6991
      6989      6988      6990      6992      6989      6988      6990      7002
      6990      7002      7005      7006      6990      7002      7005      7007
      6990      7002      7005      7008      6991      6990      7002      7003
      6991      6990      7002      7004      6991      6990      7002      7005
      6992      6990      7002      7003      6992      6990      7002      7004
      6992      6990      7002      7005      6993      6996      6997      6998
      6993      6996      6997      6999      6994      6993      6996      6997
      6995      6993      6996      6997      6996      6997      6999      7000
      6996      6997      6999      7001      6996      6997      6999      7046
      6997      6999      7046      7047      6997      6999      7046      7048
      6997      6999      7046      7049      6998      6997      6999      7000
      6998      6997      6999      7001      6998      6997      6999      7046
      6999      7046      7049      7050      6999      7046      7049      7051
      6999      7046      7049      7052      7000      6999      7046      7047
      7000      6999      7046      7048      7000      6999      7046      7049
      7001      6999      7046      7047      7001      6999      7046      7048
      7001      6999      7046      7049      7002      7005      7008      7009
      7002      7005      7008      7010      7002      7005      7008      7011
      7003      7002      7005      7006      7003      7002      7005      7007
      7003      7002      7005      7008      7004      7002      7005      7006
      7004      7002      7005      7007      7004      7002      7005      7008
      7005      7008      7011      7012      7005      7008      7011      7013
      7005      7008      7011      7014      7006      7005      7008      7009
      7006      7005      7008      7010      7006      7005      7008      7011
      7007      7005      7008      7009      7007      7005      7008      7010
      7007      7005      7008      7011      7008      7011      7014      7015
      7008      7011      7014      7016      7008      7011      7014      7017
      7009      7008      7011      7012      7009      7008      7011      7013
      7009      7008      7011      7014      7010      7008      7011      7012
      7010      7008      7011      7013      7010      7008      7011      7014
      7011      7014      7017      7018      7011      7014      7017      7019
      7011      7014      7017      7020      7012      7011      7014      7015
      7012      7011      7014      7016      7012      7011      7014      7017
      7013      7011      7014      7015      7013      7011      7014      7016
      7013      7011      7014      7017      7014      7017      7020      7021
      7014      7017      7020      7022      7014      7017      7020      7025
      7015      7014      7017      7018      7015      7014      7017      7019
      7015      7014      7017      7020      7016      7014      7017      7018
      7016      7014      7017      7019      7016      7014      7017      7020
      7017      7020      7022      7023      7017      7020      7022      7024
      7017      7020      7022      7025      7017      7020      7025      7022
      7017      7020      7025      7026      7017      7020      7025      7027
      7018      7017      7020      7021      7018      7017      7020      7022
      7018      7017      7020      7025      7019      7017      7020      7021
      7019      7017      7020      7022      7019      7017      7020      7025
      7020      7022      7025      7026      7020      7022      7025      7027
      7020      7025      7022      7023      7020      7025      7022      7024
      7020      7025      7027      7028      7020      7025      7027      7029
      7020      7025      7027      7030      7021      7020      7022      7023
      7021      7020      7022      7024      7021      7020      7022      7025
      7021      7020      7025      7022      7021      7020      7025      7026
      7021      7020      7025      7027      7022      7020      7025      7026
      7022      7020      7025      7027      7022      7025      7027      7028
      7022      7025      7027      7029      7022      7025      7027      7030
      7023      7022      7020      7025      7023      7022      7025      7026
      7023      7022      7025      7027      7024      7022      7020      7025
      7024      7022      7025      7026      7024      7022      7025      7027
      7025      7027      7030      7031      7025      7027      7030      7032
      7025      7027      7030      7033      7026      7025      7027      7028
      7026      7025      7027      7029      7026      7025      7027      7030
      7027      7030      7033      7034      7027      7030      7033      7035
      7027      7030      7033      7036      7028      7027      7030      7031
      7028      7027      7030      7032      7028      7027      7030      7033
      7029      7027      7030      7031      7029      7027      7030      7032
      7029      7027      7030      7033      7030      7033      7036      7037
      7030      7033      7036      7038      7030      7033      7036      7039
      7031      7030      7033      7034      7031      7030      7033      7035
      7031      7030      7033      7036      7032      7030      7033      7034
      7032      7030      7033      7035      7032      7030      7033      7036
      7033      7036      7039      7040      7033      7036      7039      7041
      7033      7036      7039      7042      7034      7033      7036      7037
      7034      7033      7036      7038      7034      7033      7036      7039
      7035      7033      7036      7037      7035      7033      7036      7038
      7035      7033      7036      7039      7036      7039      7042      7043
      7036      7039      7042      7044      7036      7039      7042      7045
      7037      7036      7039      7040      7037      7036      7039      7041
      7037      7036      7039      7042      7038      7036      7039      7040
      7038      7036      7039      7041      7038      7036      7039      7042
      7040      7039      7042      7043      7040      7039      7042      7044
      7040      7039      7042      7045      7041      7039      7042      7043
      7041      7039      7042      7044      7041      7039      7042      7045
      7046      7049      7052      7053      7046      7049      7052      7054
      7046      7049      7052      7055      7047      7046      7049      7050
      7047      7046      7049      7051      7047      7046      7049      7052
      7048      7046      7049      7050      7048      7046      7049      7051
      7048      7046      7049      7052      7049      7052      7055      7056
      7049      7052      7055      7057      7049      7052      7055      7058
      7050      7049      7052      7053      7050      7049      7052      7054
      7050      7049      7052      7055      7051      7049      7052      7053
      7051      7049      7052      7054      7051      7049      7052      7055
      7052      7055      7058      7059      7052      7055      7058      7060
      7052      7055      7058      7061      7053      7052      7055      7056
      7053      7052      7055      7057      7053      7052      7055      7058
      7054      7052      7055      7056      7054      7052      7055      7057
      7054      7052      7055      7058      7055      7058      7061      7062
      7055      7058      7061      7063      7055      7058      7061      7064
      7056      7055      7058      7059      7056      7055      7058      7060
      7056      7055      7058      7061      7057      7055      7058      7059
      7057      7055      7058      7060      7057      7055      7058      7061
      7058      7061      7064      7065      7058      7061      7064      7066
      7058      7061      7064      7067      7059      7058      7061      7062
      7059      7058      7061      7063      7059      7058      7061      7064
      7060      7058      7061      7062      7060      7058      7061      7063
      7060      7058      7061      7064      7061      7064      7067      7068
      7061      7064      7067      7069      7061      7064      7067      7070
      7062      7061      7064      7065      7062      7061      7064      7066
      7062      7061      7064      7067      7063      7061      7064      7065
      7063      7061      7064      7066      7063      7061      7064      7067
      7064      7067      7070      7071      7064      7067      7070      7072
      7064      7067      7070      7073      7065      7064      7067      7068
      7065      7064      7067      7069      7065      7064      7067      7070
      7066      7064      7067      7068      7066      7064      7067      7069
      7066      7064      7067      7070      7067      7070      7073      7074
      7067      7070      7073      7075      7067      7070      7073      7076
      7068      7067      7070      7071      7068      7067      7070      7072
      7068      7067      7070      7073      7069      7067      7070      7071
      7069      7067      7070      7072      7069      7067      7070      7073
      7070      7073      7076      7077      7070      7073      7076      7078
      7070      7073      7076      7079      7071      7070      7073      7074
      7071      7070      7073      7075      7071      7070      7073      7076
      7072      7070      7073      7074      7072      7070      7073      7075
      7072      7070      7073      7076      7073      7076      7079      7080
      7073      7076      7079      7081      7073      7076      7079      7082
      7074      7073      7076      7077      7074      7073      7076      7078
      7074      7073      7076      7079      7075      7073      7076      7077
      7075      7073      7076      7078      7075      7073      7076      7079
      7076      7079      7082      7083      7076      7079      7082      7084
      7076      7079      7082      7085      7077      7076      7079      7080
      7077      7076      7079      7081      7077      7076      7079      7082
      7078      7076      7079      7080      7078      7076      7079      7081
      7078      7076      7079      7082      7079      7082      7085      7086
      7079      7082      7085      7087      7079      7082      7085      7088
      7080      7079      7082      7083      7080      7079      7082      7084
      7080      7079      7082      7085      7081      7079      7082      7083
      7081      7079      7082      7084      7081      7079      7082      7085
      7083      7082      7085      7086      7083      7082      7085      7087
      7083      7082      7085      7088      7084      7082      7085      7086
      7084      7082      7085      7087      7084      7082      7085      7088
      7089      7093      7096      7097      7089      7093      7096      7098
      7089      7093      7096      7103      7090      7089      7093      7094
      7090      7089      7093      7095      7090      7089      7093      7096
      7091      7089      7093      7094      7091      7089      7093      7095
      7091      7089      7093      7096      7092      7089      7093      7094
      7092      7089      7093      7095      7092      7089      7093      7096
      7093      7096      7103      7099      7094      7093      7096      7097
      7094      7093      7096      7098      7094      7093      7096      7103
      7095      7093      7096      7097      7095      7093      7096      7098
      7095      7093      7096      7103      7096      7103      7099      7100
      7096      7103      7099      7101      7096      7103      7099      7102
      7097      7096      7103      7099      7098      7096      7103      7099
      7099      7102      7104      7105      7099      7102      7104      7106
      7099      7102      7104      7107      7100      7099      7102      7104
      7101      7099      7102      7104      7102      7104      7107      7108
      7102      7104      7107      7109      7102      7104      7107      7115
      7103      7099      7102      7104      7104      7107      7109      7110
      7104      7107      7115      7116      7104      7107      7115      7117
      7104      7107      7115      7118      7105      7104      7107      7108
      7105      7104      7107      7109      7105      7104      7107      7115
      7106      7104      7107      7108      7106      7104      7107      7109
      7106      7104      7107      7115      7107      7109      7110      7111
      7107      7109      7110      7112      7107      7115      7118      7119
      7108      7107      7109      7110      7108      7107      7115      7116
      7108      7107      7115      7117      7108      7107      7115      7118
      7109      7107      7115      7116      7109      7107      7115      7117
      7109      7107      7115      7118      7109      7110      7112      7113
      7109      7110      7112      7114      7109      7110      7112      7124
      7110      7109      7107      7115      7110      7112      7124      7125
      7110      7112      7124      7126      7110      7112      7124      7127
      7111      7110      7112      7113      7111      7110      7112      7114
      7111      7110      7112      7124      7112      7124      7127      7128
      7112      7124      7127      7129      7112      7124      7127      7130
      7113      7112      7124      7125      7113      7112      7124      7126
      7113      7112      7124      7127      7114      7112      7124      7125
      7114      7112      7124      7126      7114      7112      7124      7127
      7115      7118      7119      7120      7115      7118      7119      7121
      7116      7115      7118      7119      7117      7115      7118      7119
      7118      7119      7121      7122      7118      7119      7121      7123
      7118      7119      7121      7168      7119      7121      7168      7169
      7119      7121      7168      7170      7119      7121      7168      7171
      7120      7119      7121      7122      7120      7119      7121      7123
      7120      7119      7121      7168      7121      7168      7171      7172
      7121      7168      7171      7173      7121      7168      7171      7174
      7122      7121      7168      7169      7122      7121      7168      7170
      7122      7121      7168      7171      7123      7121      7168      7169
      7123      7121      7168      7170      7123      7121      7168      7171
      7124      7127      7130      7131      7124      7127      7130      7132
      7124      7127      7130      7133      7125      7124      7127      7128
      7125      7124      7127      7129      7125      7124      7127      7130
      7126      7124      7127      7128      7126      7124      7127      7129
      7126      7124      7127      7130      7127      7130      7133      7134
      7127      7130      7133      7135      7127      7130      7133      7136
      7128      7127      7130      7131      7128      7127      7130      7132
      7128      7127      7130      7133      7129      7127      7130      7131
      7129      7127      7130      7132      7129      7127      7130      7133
      7130      7133      7136      7137      7130      7133      7136      7138
      7130      7133      7136      7139      7131      7130      7133      7134
      7131      7130      7133      7135      7131      7130      7133      7136
      7132      7130      7133      7134      7132      7130      7133      7135
      7132      7130      7133      7136      7133      7136      7139      7140
      7133      7136      7139      7141      7133      7136      7139      7142
      7134      7133      7136      7137      7134      7133      7136      7138
      7134      7133      7136      7139      7135      7133      7136      7137
      7135      7133      7136      7138      7135      7133      7136      7139
      7136      7139      7142      7143      7136      7139      7142      7144
      7136      7139      7142      7147      7137      7136      7139      7140
      7137      7136      7139      7141      7137      7136      7139      7142
      7138      7136      7139      7140      7138      7136      7139      7141
      7138      7136      7139      7142      7139      7142      7144      7145
      7139      7142      7144      7146      7139      7142      7144      7147
      7139      7142      7147      7144      7139      7142      7147      7148
      7139      7142      7147      7149      7140      7139      7142      7143
      7140      7139      7142      7144      7140      7139      7142      7147
      7141      7139      7142      7143      7141      7139      7142      7144
      7141      7139      7142      7147      7142      7144      7147      7148
      7142      7144      7147      7149      7142      7147      7144      7145
      7142      7147      7144      7146      7142      7147      7149      7150
      7142      7147      7149      7151      7142      7147      7149      7152
      7143      7142      7144      7145      7143      7142      7144      7146
      7143      7142      7144      7147      7143      7142      7147      7144
      7143      7142      7147      7148      7143      7142      7147      7149
      7144      7142      7147      7148      7144      7142      7147      7149
      7144      7147      7149      7150      7144      7147      7149      7151
      7144      7147      7149      7152      7145      7144      7142      7147
      7145      7144      7147      7148      7145      7144      7147      7149
      7146      7144      7142      7147      7146      7144      7147      7148
      7146      7144      7147      7149      7147      7149      7152      7153
      7147      7149      7152      7154      7147      7149      7152      7155
      7148      7147      7149      7150      7148      7147      7149      7151
      7148      7147      7149      7152      7149      7152      7155      7156
      7149      7152      7155      7157      7149      7152      7155      7158
      7150      7149      7152      7153      7150      7149      7152      7154
      7150      7149      7152      7155      7151      7149      7152      7153
      7151      7149      7152      7154      7151      7149      7152      7155
      7152      7155      7158      7159      7152      7155      7158      7160
      7152      7155      7158      7161      7153      7152      7155      7156
      7153      7152      7155      7157      7153      7152      7155      7158
      7154      7152      7155      7156      7154      7152      7155      7157
      7154      7152      7155      7158      7155      7158      7161      7162
      7155      7158      7161      7163      7155      7158      7161      7164
      7156      7155      7158      7159      7156      7155      7158      7160
      7156      7155      7158      7161      7157      7155      7158      7159
      7157      7155      7158      7160      7157      7155      7158      7161
      7158      7161      7164      7165      7158      7161      7164      7166
      7158      7161      7164      7167      7159      7158      7161      7162
      7159      7158      7161      7163      7159      7158      7161      7164
      7160      7158      7161      7162      7160      7158      7161      7163
      7160      7158      7161      7164      7162      7161      7164      7165
      7162      7161      7164      7166      7162      7161      7164      7167
      7163      7161      7164      7165      7163      7161      7164      7166
      7163      7161      7164      7167      7168      7171      7174      7175
      7168      7171      7174      7176      7168      7171      7174      7177
      7169      7168      7171      7172      7169      7168      7171      7173
      7169      7168      7171      7174      7170      7168      7171      7172
      7170      7168      7171      7173      7170      7168      7171      7174
      7171      7174      7177      7178      7171      7174      7177      7179
      7171      7174      7177      7180      7172      7171      7174      7175
      7172      7171      7174      7176      7172      7171      7174      7177
      7173      7171      7174      7175      7173      7171      7174      7176
      7173      7171      7174      7177      7174      7177      7180      7181
      7174      7177      7180      7182      7174      7177      7180      7183
      7175      7174      7177      7178      7175      7174      7177      7179
      7175      7174      7177      7180      7176      7174      7177      7178
      7176      7174      7177      7179      7176      7174      7177      7180
      7177      7180      7183      7184      7177      7180      7183      7185
      7177      7180      7183      7186      7178      7177      7180      7181
      7178      7177      7180      7182      7178      7177      7180      7183
      7179      7177      7180      7181      7179      7177      7180      7182
      7179      7177      7180      7183      7180      7183      7186      7187
      7180      7183      7186      7188      7180      7183      7186      7189
      7181      7180      7183      7184      7181      7180      7183      7185
      7181      7180      7183      7186      7182      7180      7183      7184
      7182      7180      7183      7185      7182      7180      7183      7186
      7183      7186      7189      7190      7183      7186      7189      7191
      7183      7186      7189      7192      7184      7183      7186      7187
      7184      7183      7186      7188      7184      7183      7186      7189
      7185      7183      7186      7187      7185      7183      7186      7188
      7185      7183      7186      7189      7186      7189      7192      7193
      7186      7189      7192      7194      7186      7189      7192      7195
      7187      7186      7189      7190      7187      7186      7189      7191
      7187      7186      7189      7192      7188      7186      7189      7190
      7188      7186      7189      7191      7188      7186      7189      7192
      7189      7192      7195      7196      7189      7192      7195      7197
      7189      7192      7195      7198      7190      7189      7192      7193
      7190      7189      7192      7194      7190      7189      7192      7195
      7191      7189      7192      7193      7191      7189      7192      7194
      7191      7189      7192      7195      7192      7195      7198      7199
      7192      7195      7198      7200      7192      7195      7198      7201
      7193      7192      7195      7196      7193      7192      7195      7197
      7193      7192      7195      7198      7194      7192      7195      7196
      7194      7192      7195      7197      7194      7192      7195      7198
      7195      7198      7201      7202      7195      7198      7201      7203
      7195      7198      7201      7204      7196      7195      7198      7199
      7196      7195      7198      7200      7196      7195      7198      7201
      7197      7195      7198      7199      7197      7195      7198      7200
      7197      7195      7198      7201      7198      7201      7204      7205
      7198      7201      7204      7206      7198      7201      7204      7207
      7199      7198      7201      7202      7199      7198      7201      7203
      7199      7198      7201      7204      7200      7198      7201      7202
      7200      7198      7201      7203      7200      7198      7201      7204
      7201      7204      7207      7208      7201      7204      7207      7209
      7201      7204      7207      7210      7202      7201      7204      7205
      7202      7201      7204      7206      7202      7201      7204      7207
      7203      7201      7204      7205      7203      7201      7204      7206
      7203      7201      7204      7207      7205      7204      7207      7208
      7205      7204      7207      7209      7205      7204      7207      7210
      7206      7204      7207      7208      7206      7204      7207      7209
      7206      7204      7207      7210      7211      7215      7218      7219
      7211      7215      7218      7220      7211      7215      7218      7225
      7212      7211      7215      7216      7212      7211      7215      7217
      7212      7211      7215      7218      7213      7211      7215      7216
      7213      7211      7215      7217      7213      7211      7215      7218
      7214      7211      7215      7216      7214      7211      7215      7217
      7214      7211      7215      7218      7215      7218      7225      7221
      7216      7215      7218      7219      7216      7215      7218      7220
      7216      7215      7218      7225      7217      7215      7218      7219
      7217      7215      7218      7220      7217      7215      7218      7225
      7218      7225      7221      7222      7218      7225      7221      7223
      7218      7225      7221      7224      7219      7218      7225      7221
      7220      7218      7225      7221      7221      7224      7226      7227
      7221      7224      7226      7228      7221      7224      7226      7229
      7222      7221      7224      7226      7223      7221      7224      7226
      7224      7226      7229      7230      7224      7226      7229      7231
      7224      7226      7229      7237      7225      7221      7224      7226
      7226      7229      7231      7232      7226      7229      7237      7238
      7226      7229      7237      7239      7226      7229      7237      7240
      7227      7226      7229      7230      7227      7226      7229      7231
      7227      7226      7229      7237      7228      7226      7229      7230
      7228      7226      7229      7231      7228      7226      7229      7237
      7229      7231      7232      7233      7229      7231      7232      7234
      7229      7237      7240      7241      7230      7229      7231      7232
      7230      7229      7237      7238      7230      7229      7237      7239
      7230      7229      7237      7240      7231      7229      7237      7238
      7231      7229      7237      7239      7231      7229      7237      7240
      7231      7232      7234      7235      7231      7232      7234      7236
      7231      7232      7234      7246      7232      7231      7229      7237
      7232      7234      7246      7247      7232      7234      7246      7248
      7232      7234      7246      7249      7233      7232      7234      7235
      7233      7232      7234      7236      7233      7232      7234      7246
      7234      7246      7249      7250      7234      7246      7249      7251
      7234      7246      7249      7252      7235      7234      7246      7247
      7235      7234      7246      7248      7235      7234      7246      7249
      7236      7234      7246      7247      7236      7234      7246      7248
      7236      7234      7246      7249      7237      7240      7241      7242
      7237      7240      7241      7243      7238      7237      7240      7241
      7239      7237      7240      7241      7240      7241      7243      7244
      7240      7241      7243      7245      7240      7241      7243      7290
      7241      7243      7290      7291      7241      7243      7290      7292
      7241      7243      7290      7293      7242      7241      7243      7244
      7242      7241      7243      7245      7242      7241      7243      7290
      7243      7290      7293      7294      7243      7290      7293      7295
      7243      7290      7293      7296      7244      7243      7290      7291
      7244      7243      7290      7292      7244      7243      7290      7293
      7245      7243      7290      7291      7245      7243      7290      7292
      7245      7243      7290      7293      7246      7249      7252      7253
      7246      7249      7252      7254      7246      7249      7252      7255
      7247      7246      7249      7250      7247      7246      7249      7251
      7247      7246      7249      7252      7248      7246      7249      7250
      7248      7246      7249      7251      7248      7246      7249      7252
      7249      7252      7255      7256      7249      7252      7255      7257
      7249      7252      7255      7258      7250      7249      7252      7253
      7250      7249      7252      7254      7250      7249      7252      7255
      7251      7249      7252      7253      7251      7249      7252      7254
      7251      7249      7252      7255      7252      7255      7258      7259
      7252      7255      7258      7260      7252      7255      7258      7261
      7253      7252      7255      7256      7253      7252      7255      7257
      7253      7252      7255      7258      7254      7252      7255      7256
      7254      7252      7255      7257      7254      7252      7255      7258
      7255      7258      7261      7262      7255      7258      7261      7263
      7255      7258      7261      7264      7256      7255      7258      7259
      7256      7255      7258      7260      7256      7255      7258      7261
      7257      7255      7258      7259      7257      7255      7258      7260
      7257      7255      7258      7261      7258      7261      7264      7265
      7258      7261      7264      7266      7258      7261      7264      7269
      7259      7258      7261      7262      7259      7258      7261      7263
      7259      7258      7261      7264      7260      7258      7261      7262
      7260      7258      7261      7263      7260      7258      7261      7264
      7261      7264      7266      7267      7261      7264      7266      7268
      7261      7264      7266      7269      7261      7264      7269      7266
      7261      7264      7269      7270      7261      7264      7269      7271
      7262      7261      7264      7265      7262      7261      7264      7266
      7262      7261      7264      7269      7263      7261      7264      7265
      7263      7261      7264      7266      7263      7261      7264      7269
      7264      7266      7269      7270      7264      7266      7269      7271
      7264      7269      7266      7267      7264      7269      7266      7268
      7264      7269      7271      7272      7264      7269      7271      7273
      7264      7269      7271      7274      7265      7264      7266      7267
      7265      7264      7266      7268      7265      7264      7266      7269
      7265      7264      7269      7266      7265      7264      7269      7270
      7265      7264      7269      7271      7266      7264      7269      7270
      7266      7264      7269      7271      7266      7269      7271      7272
      7266      7269      7271      7273      7266      7269      7271      7274
      7267      7266      7264      7269      7267      7266      7269      7270
      7267      7266      7269      7271      7268      7266      7264      7269
      7268      7266      7269      7270      7268      7266      7269      7271
      7269      7271      7274      7275      7269      7271      7274      7276
      7269      7271      7274      7277      7270      7269      7271      7272
      7270      7269      7271      7273      7270      7269      7271      7274
      7271      7274      7277      7278      7271      7274      7277      7279
      7271      7274      7277      7280      7272      7271      7274      7275
      7272      7271      7274      7276      7272      7271      7274      7277
      7273      7271      7274      7275      7273      7271      7274      7276
      7273      7271      7274      7277      7274      7277      7280      7281
      7274      7277      7280      7282      7274      7277      7280      7283
      7275      7274      7277      7278      7275      7274      7277      7279
      7275      7274      7277      7280      7276      7274      7277      7278
      7276      7274      7277      7279      7276      7274      7277      7280
      7277      7280      7283      7284      7277      7280      7283      7285
      7277      7280      7283      7286      7278      7277      7280      7281
      7278      7277      7280      7282      7278      7277      7280      7283
      7279      7277      7280      7281      7279      7277      7280      7282
      7279      7277      7280      7283      7280      7283      7286      7287
      7280      7283      7286      7288      7280      7283      7286      7289
      7281      7280      7283      7284      7281      7280      7283      7285
      7281      7280      7283      7286      7282      7280      7283      7284
      7282      7280      7283      7285      7282      7280      7283      7286
      7284      7283      7286      7287      7284      7283      7286      7288
      7284      7283      7286      7289      7285      7283      7286      7287
      7285      7283      7286      7288      7285      7283      7286      7289
      7290      7293      7296      7297      7290      7293      7296      7298
      7290      7293      7296      7299      7291      7290      7293      7294
      7291      7290      7293      7295      7291      7290      7293      7296
      7292      7290      7293      7294      7292      7290      7293      7295
      7292      7290      7293      7296      7293      7296      7299      7300
      7293      7296      7299      7301      7293      7296      7299      7302
      7294      7293      7296      7297      7294      7293      7296      7298
      7294      7293      7296      7299      7295      7293      7296      7297
      7295      7293      7296      7298      7295      7293      7296      7299
      7296      7299      7302      7303      7296      7299      7302      7304
      7296      7299      7302      7305      7297      7296      7299      7300
      7297      7296      7299      7301      7297      7296      7299      7302
      7298      7296      7299      7300      7298      7296      7299      7301
      7298      7296      7299      7302      7299      7302      7305      7306
      7299      7302      7305      7307      7299      7302      7305      7308
      7300      7299      7302      7303      7300      7299      7302      7304
      7300      7299      7302      7305      7301      7299      7302      7303
      7301      7299      7302      7304      7301      7299      7302      7305
      7302      7305      7308      7309      7302      7305      7308      7310
      7302      7305      7308      7311      7303      7302      7305      7306
      7303      7302      7305      7307      7303      7302      7305      7308
      7304      7302      7305      7306      7304      7302      7305      7307
      7304      7302      7305      7308      7305      7308      7311      7312
      7305      7308      7311      7313      7305      7308      7311      7314
      7306      7305      7308      7309      7306      7305      7308      7310
      7306      7305      7308      7311      7307      7305      7308      7309
      7307      7305      7308      7310      7307      7305      7308      7311
      7308      7311      7314      7315      7308      7311      7314      7316
      7308      7311      7314      7317      7309      7308      7311      7312
      7309      7308      7311      7313      7309      7308      7311      7314
      7310      7308      7311      7312      7310      7308      7311      7313
      7310      7308      7311      7314      7311      7314      7317      7318
      7311      7314      7317      7319      7311      7314      7317      7320
      7312      7311      7314      7315      7312      7311      7314      7316
      7312      7311      7314      7317      7313      7311      7314      7315
      7313      7311      7314      7316      7313      7311      7314      7317
      7314      7317      7320      7321      7314      7317      7320      7322
      7314      7317      7320      7323      7315      7314      7317      7318
      7315      7314      7317      7319      7315      7314      7317      7320
      7316      7314      7317      7318      7316      7314      7317      7319
      7316      7314      7317      7320      7317      7320      7323      7324
      7317      7320      7323      7325      7317      7320      7323      7326
      7318      7317      7320      7321      7318      7317      7320      7322
      7318      7317      7320      7323      7319      7317      7320      7321
      7319      7317      7320      7322      7319      7317      7320      7323
      7320      7323      7326      7327      7320      7323      7326      7328
      7320      7323      7326      7329      7321      7320      7323      7324
      7321      7320      7323      7325      7321      7320      7323      7326
      7322      7320      7323      7324      7322      7320      7323      7325
      7322      7320      7323      7326      7323      7326      7329      7330
      7323      7326      7329      7331      7323      7326      7329      7332
      7324      7323      7326      7327      7324      7323      7326      7328
      7324      7323      7326      7329      7325      7323      7326      7327
      7325      7323      7326      7328      7325      7323      7326      7329
      7327      7326      7329      7330      7327      7326      7329      7331
      7327      7326      7329      7332      7328      7326      7329      7330
      7328      7326      7329      7331      7328      7326      7329      7332
      7333      7337      7340      7341      7333      7337      7340      7342
      7333      7337      7340      7347      7334      7333      7337      7338
      7334      7333      7337      7339      7334      7333      7337      7340
      7335      7333      7337      7338      7335      7333      7337      7339
      7335      7333      7337      7340      7336      7333      7337      7338
      7336      7333      7337      7339      7336      7333      7337      7340
      7337      7340      7347      7343      7338      7337      7340      7341
      7338      7337      7340      7342      7338      7337      7340      7347
      7339      7337      7340      7341      7339      7337      7340      7342
      7339      7337      7340      7347      7340      7347      7343      7344
      7340      7347      7343      7345      7340      7347      7343      7346
      7341      7340      7347      7343      7342      7340      7347      7343
      7343      7346      7348      7349      7343      7346      7348      7350
      7343      7346      7348      7351      7344      7343      7346      7348
      7345      7343      7346      7348      7346      7348      7351      7352
      7346      7348      7351      7353      7346      7348      7351      7359
      7347      7343      7346      7348      7348      7351      7353      7354
      7348      7351      7359      7360      7348      7351      7359      7361
      7348      7351      7359      7362      7349      7348      7351      7352
      7349      7348      7351      7353      7349      7348      7351      7359
      7350      7348      7351      7352      7350      7348      7351      7353
      7350      7348      7351      7359      7351      7353      7354      7355
      7351      7353      7354      7356      7351      7359      7362      7363
      7352      7351      7353      7354      7352      7351      7359      7360
      7352      7351      7359      7361      7352      7351      7359      7362
      7353      7351      7359      7360      7353      7351      7359      7361
      7353      7351      7359      7362      7353      7354      7356      7357
      7353      7354      7356      7358      7353      7354      7356      7368
      7354      7353      7351      7359      7354      7356      7368      7369
      7354      7356      7368      7370      7354      7356      7368      7371
      7355      7354      7356      7357      7355      7354      7356      7358
      7355      7354      7356      7368      7356      7368      7371      7372
      7356      7368      7371      7373      7356      7368      7371      7374
      7357      7356      7368      7369      7357      7356      7368      7370
      7357      7356      7368      7371      7358      7356      7368      7369
      7358      7356      7368      7370      7358      7356      7368      7371
      7359      7362      7363      7364      7359      7362      7363      7365
      7360      7359      7362      7363      7361      7359      7362      7363
      7362      7363      7365      7366      7362      7363      7365      7367
      7362      7363      7365      7412      7363      7365      7412      7413
      7363      7365      7412      7414      7363      7365      7412      7415
      7364      7363      7365      7366      7364      7363      7365      7367
      7364      7363      7365      7412      7365      7412      7415      7416
      7365      7412      7415      7417      7365      7412      7415      7418
      7366      7365      7412      7413      7366      7365      7412      7414
      7366      7365      7412      7415      7367      7365      7412      7413
      7367      7365      7412      7414      7367      7365      7412      7415
      7368      7371      7374      7375      7368      7371      7374      7376
      7368      7371      7374      7377      7369      7368      7371      7372
      7369      7368      7371      7373      7369      7368      7371      7374
      7370      7368      7371      7372      7370      7368      7371      7373
      7370      7368      7371      7374      7371      7374      7377      7378
      7371      7374      7377      7379      7371      7374      7377      7380
      7372      7371      7374      7375      7372      7371      7374      7376
      7372      7371      7374      7377      7373      7371      7374      7375
      7373      7371      7374      7376      7373      7371      7374      7377
      7374      7377      7380      7381      7374      7377      7380      7382
      7374      7377      7380      7383      7375      7374      7377      7378
      7375      7374      7377      7379      7375      7374      7377      7380
      7376      7374      7377      7378      7376      7374      7377      7379
      7376      7374      7377      7380      7377      7380      7383      7384
      7377      7380      7383      7385      7377      7380      7383      7386
      7378      7377      7380      7381      7378      7377      7380      7382
      7378      7377      7380      7383      7379      7377      7380      7381
      7379      7377      7380      7382      7379      7377      7380      7383
      7380      7383      7386      7387      7380      7383      7386      7388
      7380      7383      7386      7391      7381      7380      7383      7384
      7381      7380      7383      7385      7381      7380      7383      7386
      7382      7380      7383      7384      7382      7380      7383      7385
      7382      7380      7383      7386      7383      7386      7388      7389
      7383      7386      7388      7390      7383      7386      7388      7391
      7383      7386      7391      7388      7383      7386      7391      7392
      7383      7386      7391      7393      7384      7383      7386      7387
      7384      7383      7386      7388      7384      7383      7386      7391
      7385      7383      7386      7387      7385      7383      7386      7388
      7385      7383      7386      7391      7386      7388      7391      7392
      7386      7388      7391      7393      7386      7391      7388      7389
      7386      7391      7388      7390      7386      7391      7393      7394
      7386      7391      7393      7395      7386      7391      7393      7396
      7387      7386      7388      7389      7387      7386      7388      7390
      7387      7386      7388      7391      7387      7386      7391      7388
      7387      7386      7391      7392      7387      7386      7391      7393
      7388      7386      7391      7392      7388      7386      7391      7393
      7388      7391      7393      7394      7388      7391      7393      7395
      7388      7391      7393      7396      7389      7388      7386      7391
      7389      7388      7391      7392      7389      7388      7391      7393
      7390      7388      7386      7391      7390      7388      7391      7392
      7390      7388      7391      7393      7391      7393      7396      7397
      7391      7393      7396      7398      7391      7393      7396      7399
      7392      7391      7393      7394      7392      7391      7393      7395
      7392      7391      7393      7396      7393      7396      7399      7400
      7393      7396      7399      7401      7393      7396      7399      7402
      7394      7393      7396      7397      7394      7393      7396      7398
      7394      7393      7396      7399      7395      7393      7396      7397
      7395      7393      7396      7398      7395      7393      7396      7399
      7396      7399      7402      7403      7396      7399      7402      7404
      7396      7399      7402      7405      7397      7396      7399      7400
      7397      7396      7399      7401      7397      7396      7399      7402
      7398      7396      7399      7400      7398      7396      7399      7401
      7398      7396      7399      7402      7399      7402      7405      7406
      7399      7402      7405      7407      7399      7402      7405      7408
      7400      7399      7402      7403      7400      7399      7402      7404
      7400      7399      7402      7405      7401      7399      7402      7403
      7401      7399      7402      7404      7401      7399      7402      7405
      7402      7405      7408      7409      7402      7405      7408      7410
      7402      7405      7408      7411      7403      7402      7405      7406
      7403      7402      7405      7407      7403      7402      7405      7408
      7404      7402      7405      7406      7404      7402      7405      7407
      7404      7402      7405      7408      7406      7405      7408      7409
      7406      7405      7408      7410      7406      7405      7408      7411
      7407      7405      7408      7409      7407      7405      7408      7410
      7407      7405      7408      7411      7412      7415      7418      7419
      7412      7415      7418      7420      7412      7415      7418      7421
      7413      7412      7415      7416      7413      7412      7415      7417
      7413      7412      7415      7418      7414      7412      7415      7416
      7414      7412      7415      7417      7414      7412      7415      7418
      7415      7418      7421      7422      7415      7418      7421      7423
      7415      7418      7421      7424      7416      7415      7418      7419
      7416      7415      7418      7420      7416      7415      7418      7421
      7417      7415      7418      7419      7417      7415      7418      7420
      7417      7415      7418      7421      7418      7421      7424      7425
      7418      7421      7424      7426      7418      7421      7424      7427
      7419      7418      7421      7422      7419      7418      7421      7423
      7419      7418      7421      7424      7420      7418      7421      7422
      7420      7418      7421      7423      7420      7418      7421      7424
      7421      7424      7427      7428      7421      7424      7427      7429
      7421      7424      7427      7430      7422      7421      7424      7425
      7422      7421      7424      7426      7422      7421      7424      7427
      7423      7421      7424      7425      7423      7421      7424      7426
      7423      7421      7424      7427      7424      7427      7430      7431
      7424      7427      7430      7432      7424      7427      7430      7433
      7425      7424      7427      7428      7425      7424      7427      7429
      7425      7424      7427      7430      7426      7424      7427      7428
      7426      7424      7427      7429      7426      7424      7427      7430
      7427      7430      7433      7434      7427      7430      7433      7435
      7427      7430      7433      7436      7428      7427      7430      7431
      7428      7427      7430      7432      7428      7427      7430      7433
      7429      7427      7430      7431      7429      7427      7430      7432
      7429      7427      7430      7433      7430      7433      7436      7437
      7430      7433      7436      7438      7430      7433      7436      7439
      7431      7430      7433      7434      7431      7430      7433      7435
      7431      7430      7433      7436      7432      7430      7433      7434
      7432      7430      7433      7435      7432      7430      7433      7436
      7433      7436      7439      7440      7433      7436      7439      7441
      7433      7436      7439      7442      7434      7433      7436      7437
      7434      7433      7436      7438      7434      7433      7436      7439
      7435      7433      7436      7437      7435      7433      7436      7438
      7435      7433      7436      7439      7436      7439      7442      7443
      7436      7439      7442      7444      7436      7439      7442      7445
      7437      7436      7439      7440      7437      7436      7439      7441
      7437      7436      7439      7442      7438      7436      7439      7440
      7438      7436      7439      7441      7438      7436      7439      7442
      7439      7442      7445      7446      7439      7442      7445      7447
      7439      7442      7445      7448      7440      7439      7442      7443
      7440      7439      7442      7444      7440      7439      7442      7445
      7441      7439      7442      7443      7441      7439      7442      7444
      7441      7439      7442      7445      7442      7445      7448      7449
      7442      7445      7448      7450      7442      7445      7448      7451
      7443      7442      7445      7446      7443      7442      7445      7447
      7443      7442      7445      7448      7444      7442      7445      7446
      7444      7442      7445      7447      7444      7442      7445      7448
      7445      7448      7451      7452      7445      7448      7451      7453
      7445      7448      7451      7454      7446      7445      7448      7449
      7446      7445      7448      7450      7446      7445      7448      7451
      7447      7445      7448      7449      7447      7445      7448      7450
      7447      7445      7448      7451      7449      7448      7451      7452
      7449      7448      7451      7453      7449      7448      7451      7454
      7450      7448      7451      7452      7450      7448      7451      7453
      7450      7448      7451      7454      7455      7460      7462      7463
      7455      7460      7464      7465      7455      7460      7464      7466
      7455      7460      7464      7471      7456      7455      7458      7459
      7456      7455      7460      7461      7456      7455      7460      7462
      7456      7455      7460      7464      7457      7455      7458      7459
      7457      7455      7460      7461      7457      7455      7460      7462
      7457      7455      7460      7464      7458      7455      7460      7461
      7458      7455      7460      7462      7458      7455      7460      7464
      7459      7458      7455      7460      7460      7464      7471      7467
      7461      7460      7462      7463      7461      7460      7464      7465
      7461      7460      7464      7466      7461      7460      7464      7471
      7462      7460      7464      7465      7462      7460      7464      7466
      7462      7460      7464      7471      7463      7462      7460      7464
      7464      7471      7467      7468      7464      7471      7467      7469
      7464      7471      7467      7470      7465      7464      7471      7467
      7466      7464      7471      7467      7467      7470      7472      7473
      7467      7470      7472      7474      7467      7470      7472      7475
      7468      7467      7470      7472      7469      7467      7470      7472
      7470      7472      7475      7476      7470      7472      7475      7477
      7470      7472      7475      7483      7471      7467      7470      7472
      7472      7475      7477      7478      7472      7475      7483      7484
      7472      7475      7483      7485      7472      7475      7483      7486
      7473      7472      7475      7476      7473      7472      7475      7477
      7473      7472      7475      7483      7474      7472      7475      7476
      7474      7472      7475      7477      7474      7472      7475      7483
      7475      7477      7478      7479      7475      7477      7478      7480
      7475      7483      7486      7487      7476      7475      7477      7478
      7476      7475      7483      7484      7476      7475      7483      7485
      7476      7475      7483      7486      7477      7475      7483      7484
      7477      7475      7483      7485      7477      7475      7483      7486
      7477      7478      7480      7481      7477      7478      7480      7482
      7477      7478      7480      7492      7478      7477      7475      7483
      7478      7480      7492      7493      7478      7480      7492      7494
      7478      7480      7492      7495      7479      7478      7480      7481
      7479      7478      7480      7482      7479      7478      7480      7492
      7480      7492      7495      7496      7480      7492      7495      7497
      7480      7492      7495      7498      7481      7480      7492      7493
      7481      7480      7492      7494      7481      7480      7492      7495
      7482      7480      7492      7493      7482      7480      7492      7494
      7482      7480      7492      7495      7483      7486      7487      7488
      7483      7486      7487      7489      7484      7483      7486      7487
      7485      7483      7486      7487      7486      7487      7489      7490
      7486      7487      7489      7491      7486      7487      7489      7536
      7487      7489      7536      7537      7487      7489      7536      7538
      7487      7489      7536      7539      7488      7487      7489      7490
      7488      7487      7489      7491      7488      7487      7489      7536
      7489      7536      7539      7540      7489      7536      7539      7541
      7489      7536      7539      7542      7490      7489      7536      7537
      7490      7489      7536      7538      7490      7489      7536      7539
      7491      7489      7536      7537      7491      7489      7536      7538
      7491      7489      7536      7539      7492      7495      7498      7499
      7492      7495      7498      7500      7492      7495      7498      7501
      7493      7492      7495      7496      7493      7492      7495      7497
      7493      7492      7495      7498      7494      7492      7495      7496
      7494      7492      7495      7497      7494      7492      7495      7498
      7495      7498      7501      7502      7495      7498      7501      7503
      7495      7498      7501      7504      7496      7495      7498      7499
      7496      7495      7498      7500      7496      7495      7498      7501
      7497      7495      7498      7499      7497      7495      7498      7500
      7497      7495      7498      7501      7498      7501      7504      7505
      7498      7501      7504      7506      7498      7501      7504      7507
      7499      7498      7501      7502      7499      7498      7501      7503
      7499      7498      7501      7504      7500      7498      7501      7502
      7500      7498      7501      7503      7500      7498      7501      7504
      7501      7504      7507      7508      7501      7504      7507      7509
      7501      7504      7507      7510      7502      7501      7504      7505
      7502      7501      7504      7506      7502      7501      7504      7507
      7503      7501      7504      7505      7503      7501      7504      7506
      7503      7501      7504      7507      7504      7507      7510      7511
      7504      7507      7510      7512      7504      7507      7510      7515
      7505      7504      7507      7508      7505      7504      7507      7509
      7505      7504      7507      7510      7506      7504      7507      7508
      7506      7504      7507      7509      7506      7504      7507      7510
      7507      7510      7512      7513      7507      7510      7512      7514
      7507      7510      7512      7515      7507      7510      7515      7512
      7507      7510      7515      7516      7507      7510      7515      7517
      7508      7507      7510      7511      7508      7507      7510      7512
      7508      7507      7510      7515      7509      7507      7510      7511
      7509      7507      7510      7512      7509      7507      7510      7515
      7510      7512      7515      7516      7510      7512      7515      7517
      7510      7515      7512      7513      7510      7515      7512      7514
      7510      7515      7517      7518      7510      7515      7517      7519
      7510      7515      7517      7520      7511      7510      7512      7513
      7511      7510      7512      7514      7511      7510      7512      7515
      7511      7510      7515      7512      7511      7510      7515      7516
      7511      7510      7515      7517      7512      7510      7515      7516
      7512      7510      7515      7517      7512      7515      7517      7518
      7512      7515      7517      7519      7512      7515      7517      7520
      7513      7512      7510      7515      7513      7512      7515      7516
      7513      7512      7515      7517      7514      7512      7510      7515
      7514      7512      7515      7516      7514      7512      7515      7517
      7515      7517      7520      7521      7515      7517      7520      7522
      7515      7517      7520      7523      7516      7515      7517      7518
      7516      7515      7517      7519      7516      7515      7517      7520
      7517      7520      7523      7524      7517      7520      7523      7525
      7517      7520      7523      7526      7518      7517      7520      7521
      7518      7517      7520      7522      7518      7517      7520      7523
      7519      7517      7520      7521      7519      7517      7520      7522
      7519      7517      7520      7523      7520      7523      7526      7527
      7520      7523      7526      7528      7520      7523      7526      7529
      7521      7520      7523      7524      7521      7520      7523      7525
      7521      7520      7523      7526      7522      7520      7523      7524
      7522      7520      7523      7525      7522      7520      7523      7526
      7523      7526      7529      7530      7523      7526      7529      7531
      7523      7526      7529      7532      7524      7523      7526      7527
      7524      7523      7526      7528      7524      7523      7526      7529
      7525      7523      7526      7527      7525      7523      7526      7528
      7525      7523      7526      7529      7526      7529      7532      7533
      7526      7529      7532      7534      7526      7529      7532      7535
      7527      7526      7529      7530      7527      7526      7529      7531
      7527      7526      7529      7532      7528      7526      7529      7530
      7528      7526      7529      7531      7528      7526      7529      7532
      7530      7529      7532      7533      7530      7529      7532      7534
      7530      7529      7532      7535      7531      7529      7532      7533
      7531      7529      7532      7534      7531      7529      7532      7535
      7536      7539      7542      7543      7536      7539      7542      7544
      7536      7539      7542      7545      7537      7536      7539      7540
      7537      7536      7539      7541      7537      7536      7539      7542
      7538      7536      7539      7540      7538      7536      7539      7541
      7538      7536      7539      7542      7539      7542      7545      7546
      7539      7542      7545      7547      7539      7542      7545      7548
      7540      7539      7542      7543      7540      7539      7542      7544
      7540      7539      7542      7545      7541      7539      7542      7543
      7541      7539      7542      7544      7541      7539      7542      7545
      7542      7545      7548      7549      7542      7545      7548      7550
      7542      7545      7548      7551      7543      7542      7545      7546
      7543      7542      7545      7547      7543      7542      7545      7548
      7544      7542      7545      7546      7544      7542      7545      7547
      7544      7542      7545      7548      7545      7548      7551      7552
      7545      7548      7551      7553      7545      7548      7551      7554
      7546      7545      7548      7549      7546      7545      7548      7550
      7546      7545      7548      7551      7547      7545      7548      7549
      7547      7545      7548      7550      7547      7545      7548      7551
      7548      7551      7554      7555      7548      7551      7554      7556
      7548      7551      7554      7557      7549      7548      7551      7552
      7549      7548      7551      7553      7549      7548      7551      7554
      7550      7548      7551      7552      7550      7548      7551      7553
      7550      7548      7551      7554      7551      7554      7557      7558
      7551      7554      7557      7559      7551      7554      7557      7560
      7552      7551      7554      7555      7552      7551      7554      7556
      7552      7551      7554      7557      7553      7551      7554      7555
      7553      7551      7554      7556      7553      7551      7554      7557
      7554      7557      7560      7561      7554      7557      7560      7562
      7554      7557      7560      7563      7555      7554      7557      7558
      7555      7554      7557      7559      7555      7554      7557      7560
      7556      7554      7557      7558      7556      7554      7557      7559
      7556      7554      7557      7560      7557      7560      7563      7564
      7557      7560      7563      7565      7557      7560      7563      7566
      7558      7557      7560      7561      7558      7557      7560      7562
      7558      7557      7560      7563      7559      7557      7560      7561
      7559      7557      7560      7562      7559      7557      7560      7563
      7560      7563      7566      7567      7560      7563      7566      7568
      7560      7563      7566      7569      7561      7560      7563      7564
      7561      7560      7563      7565      7561      7560      7563      7566
      7562      7560      7563      7564      7562      7560      7563      7565
      7562      7560      7563      7566      7563      7566      7569      7570
      7563      7566      7569      7571      7563      7566      7569      7572
      7564      7563      7566      7567      7564      7563      7566      7568
      7564      7563      7566      7569      7565      7563      7566      7567
      7565      7563      7566      7568      7565      7563      7566      7569
      7566      7569      7572      7573      7566      7569      7572      7574
      7566      7569      7572      7575      7567      7566      7569      7570
      7567      7566      7569      7571      7567      7566      7569      7572
      7568      7566      7569      7570      7568      7566      7569      7571
      7568      7566      7569      7572      7569      7572      7575      7576
      7569      7572      7575      7577      7569      7572      7575      7578
      7570      7569      7572      7573      7570      7569      7572      7574
      7570      7569      7572      7575      7571      7569      7572      7573
      7571      7569      7572      7574      7571      7569      7572      7575
      7573      7572      7575      7576      7573      7572      7575      7577
      7573      7572      7575      7578      7574      7572      7575      7576
      7574      7572      7575      7577      7574      7572      7575      7578
      7579      7583      7586      7587      7579      7583      7586      7588
      7579      7583      7586      7593      7580      7579      7583      7584
      7580      7579      7583      7585      7580      7579      7583      7586
      7581      7579      7583      7584      7581      7579      7583      7585
      7581      7579      7583      7586      7582      7579      7583      7584
      7582      7579      7583      7585      7582      7579      7583      7586
      7583      7586      7593      7589      7584      7583      7586      7587
      7584      7583      7586      7588      7584      7583      7586      7593
      7585      7583      7586      7587      7585      7583      7586      7588
      7585      7583      7586      7593      7586      7593      7589      7590
      7586      7593      7589      7591      7586      7593      7589      7592
      7587      7586      7593      7589      7588      7586      7593      7589
      7589      7592      7594      7595      7589      7592      7594      7596
      7589      7592      7594      7597      7590      7589      7592      7594
      7591      7589      7592      7594      7592      7594      7597      7598
      7592      7594      7597      7599      7592      7594      7597      7605
      7593      7589      7592      7594      7594      7597      7599      7600
      7594      7597      7605      7606      7594      7597      7605      7607
      7594      7597      7605      7608      7595      7594      7597      7598
      7595      7594      7597      7599      7595      7594      7597      7605
      7596      7594      7597      7598      7596      7594      7597      7599
      7596      7594      7597      7605      7597      7599      7600      7601
      7597      7599      7600      7602      7597      7605      7608      7609
      7598      7597      7599      7600      7598      7597      7605      7606
      7598      7597      7605      7607      7598      7597      7605      7608
      7599      7597      7605      7606      7599      7597      7605      7607
      7599      7597      7605      7608      7599      7600      7602      7603
      7599      7600      7602      7604      7599      7600      7602      7614
      7600      7599      7597      7605      7600      7602      7614      7615
      7600      7602      7614      7616      7600      7602      7614      7617
      7601      7600      7602      7603      7601      7600      7602      7604
      7601      7600      7602      7614      7602      7614      7617      7618
      7602      7614      7617      7619      7602      7614      7617      7620
      7603      7602      7614      7615      7603      7602      7614      7616
      7603      7602      7614      7617      7604      7602      7614      7615
      7604      7602      7614      7616      7604      7602      7614      7617
      7605      7608      7609      7610      7605      7608      7609      7611
      7606      7605      7608      7609      7607      7605      7608      7609
      7608      7609      7611      7612      7608      7609      7611      7613
      7608      7609      7611      7661      7609      7611      7661      7662
      7609      7611      7661      7663      7609      7611      7661      7664
      7610      7609      7611      7612      7610      7609      7611      7613
      7610      7609      7611      7661      7611      7661      7664      7665
      7611      7661      7664      7666      7611      7661      7664      7667
      7612      7611      7661      7662      7612      7611      7661      7663
      7612      7611      7661      7664      7613      7611      7661      7662
      7613      7611      7661      7663      7613      7611      7661      7664
      7614      7617      7620      7621      7614      7617      7620      7622
      7614      7617      7620      7623      7615      7614      7617      7618
      7615      7614      7617      7619      7615      7614      7617      7620
      7616      7614      7617      7618      7616      7614      7617      7619
      7616      7614      7617      7620      7617      7620      7623      7624
      7617      7620      7623      7625      7617      7620      7623      7626
      7618      7617      7620      7621      7618      7617      7620      7622
      7618      7617      7620      7623      7619      7617      7620      7621
      7619      7617      7620      7622      7619      7617      7620      7623
      7620      7623      7626      7627      7620      7623      7626      7628
      7620      7623      7626      7629      7621      7620      7623      7624
      7621      7620      7623      7625      7621      7620      7623      7626
      7622      7620      7623      7624      7622      7620      7623      7625
      7622      7620      7623      7626      7623      7626      7629      7630
      7623      7626      7629      7631      7623      7626      7629      7632
      7624      7623      7626      7627      7624      7623      7626      7628
      7624      7623      7626      7629      7625      7623      7626      7627
      7625      7623      7626      7628      7625      7623      7626      7629
      7626      7629      7632      7633      7626      7629      7632      7634
      7627      7626      7629      7630      7627      7626      7629      7631
      7627      7626      7629      7632      7628      7626      7629      7630
      7628      7626      7629      7631      7628      7626      7629      7632
      7629      7632      7634      7635      7629      7632      7634      7636
      7630      7629      7632      7633      7630      7629      7632      7634
      7631      7629      7632      7633      7631      7629      7632      7634
      7632      7634      7636      7637      7632      7634      7636      7638
      7632      7634      7636      7639      7633      7632      7634      7635
      7633      7632      7634      7636      7634      7636      7639      7640
      7634      7636      7639      7641      7634      7636      7639      7642
      7635      7634      7636      7637      7635      7634      7636      7638
      7635      7634      7636      7639      7636      7639      7642      7643
      7636      7639      7642      7644      7636      7639      7642      7645
      7637      7636      7639      7640      7637      7636      7639      7641
      7637      7636      7639      7642      7638      7636      7639      7640
      7638      7636      7639      7641      7638      7636      7639      7642
      7639      7642      7645      7646      7639      7642      7645      7647
      7639      7642      7645      7648      7640      7639      7642      7643
      7640      7639      7642      7644      7640      7639      7642      7645
      7641      7639      7642      7643      7641      7639      7642      7644
      7641      7639      7642      7645      7642      7645      7648      7649
      7642      7645      7648      7650      7642      7645      7648      7651
      7643      7642      7645      7646      7643      7642      7645      7647
      7643      7642      7645      7648      7644      7642      7645      7646
      7644      7642      7645      7647      7644      7642      7645      7648
      7645      7648      7651      7652      7645      7648      7651      7653
      7645      7648      7651      7654      7646      7645      7648      7649
      7646      7645      7648      7650      7646      7645      7648      7651
      7647      7645      7648      7649      7647      7645      7648      7650
      7647      7645      7648      7651      7648      7651      7654      7655
      7648      7651      7654      7656      7648      7651      7654      7657
      7649      7648      7651      7652      7649      7648      7651      7653
      7649      7648      7651      7654      7650      7648      7651      7652
      7650      7648      7651      7653      7650      7648      7651      7654
      7651      7654      7657      7658      7651      7654      7657      7659
      7651      7654      7657      7660      7652      7651      7654      7655
      7652      7651      7654      7656      7652      7651      7654      7657
      7653      7651      7654      7655      7653      7651      7654      7656
      7653      7651      7654      7657      7655      7654      7657      7658
      7655      7654      7657      7659      7655      7654      7657      7660
      7656      7654      7657      7658      7656      7654      7657      7659
      7656      7654      7657      7660      7661      7664      7667      7668
      7661      7664      7667      7669      7661      7664      7667      7670
      7662      7661      7664      7665      7662      7661      7664      7666
      7662      7661      7664      7667      7663      7661      7664      7665
      7663      7661      7664      7666      7663      7661      7664      7667
      7664      7667      7670      7671      7664      7667      7670      7672
      7664      7667      7670      7673      7665      7664      7667      7668
      7665      7664      7667      7669      7665      7664      7667      7670
      7666      7664      7667      7668      7666      7664      7667      7669
      7666      7664      7667      7670      7667      7670      7673      7674
      7667      7670      7673      7675      7667      7670      7673      7676
      7668      7667      7670      7671      7668      7667      7670      7672
      7668      7667      7670      7673      7669      7667      7670      7671
      7669      7667      7670      7672      7669      7667      7670      7673
      7670      7673      7676      7677      7670      7673      7676      7678
      7670      7673      7676      7679      7671      7670      7673      7674
      7671      7670      7673      7675      7671      7670      7673      7676
      7672      7670      7673      7674      7672      7670      7673      7675
      7672      7670      7673      7676      7673      7676      7679      7680
      7673      7676      7679      7681      7673      7676      7679      7682
      7674      7673      7676      7677      7674      7673      7676      7678
      7674      7673      7676      7679      7675      7673      7676      7677
      7675      7673      7676      7678      7675      7673      7676      7679
      7676      7679      7682      7683      7676      7679      7682      7684
      7676      7679      7682      7685      7677      7676      7679      7680
      7677      7676      7679      7681      7677      7676      7679      7682
      7678      7676      7679      7680      7678      7676      7679      7681
      7678      7676      7679      7682      7679      7682      7685      7686
      7679      7682      7685      7687      7679      7682      7685      7688
      7680      7679      7682      7683      7680      7679      7682      7684
      7680      7679      7682      7685      7681      7679      7682      7683
      7681      7679      7682      7684      7681      7679      7682      7685
      7682      7685      7688      7689      7682      7685      7688      7690
      7682      7685      7688      7691      7683      7682      7685      7686
      7683      7682      7685      7687      7683      7682      7685      7688
      7684      7682      7685      7686      7684      7682      7685      7687
      7684      7682      7685      7688      7685      7688      7691      7692
      7685      7688      7691      7693      7685      7688      7691      7694
      7686      7685      7688      7689      7686      7685      7688      7690
      7686      7685      7688      7691      7687      7685      7688      7689
      7687      7685      7688      7690      7687      7685      7688      7691
      7688      7691      7694      7695      7688      7691      7694      7696
      7688      7691      7694      7697      7689      7688      7691      7692
      7689      7688      7691      7693      7689      7688      7691      7694
      7690      7688      7691      7692      7690      7688      7691      7693
      7690      7688      7691      7694      7691      7694      7697      7698
      7691      7694      7697      7699      7691      7694      7697      7700
      7692      7691      7694      7695      7692      7691      7694      7696
      7692      7691      7694      7697      7693      7691      7694      7695
      7693      7691      7694      7696      7693      7691      7694      7697
      7694      7697      7700      7701      7694      7697      7700      7702
      7694      7697      7700      7703      7695      7694      7697      7698
      7695      7694      7697      7699      7695      7694      7697      7700
      7696      7694      7697      7698      7696      7694      7697      7699
      7696      7694      7697      7700      7698      7697      7700      7701
      7698      7697      7700      7702      7698      7697      7700      7703
      7699      7697      7700      7701      7699      7697      7700      7702
      7699      7697      7700      7703      7704      7710      7707      7708
      7704      7710      7707      7709      7704      7710      7707      7711
      7704      7715      7717      7718      7704      7715      7719      7720
      7704      7715      7719      7721      7704      7715      7719      7725
      7705      7704      7710      7707      7705      7704      7715      7716
      7705      7704      7715      7717      7705      7704      7715      7719
      7706      7704      7710      7707      7706      7704      7715      7716
      7706      7704      7715      7717      7706      7704      7715      7719
      7707      7710      7704      7715      7707      7711      7712      7713
      7707      7711      7712      7714      7707      7711      7712      7747
      7708      7707      7711      7712      7709      7707      7711      7712
      7710      7704      7715      7716      7710      7704      7715      7717
      7710      7704      7715      7719      7710      7707      7711      7712
      7711      7712      7747      7748      7711      7712      7747      7749
      7711      7712      7747      7755      7712      7747      7749      7750
      7712      7747      7755      7756      7712      7747      7755      7757
      7712      7747      7755      7758      7713      7712      7747      7748
      7713      7712      7747      7749      7713      7712      7747      7755
      7714      7712      7747      7748      7714      7712      7747      7749
      7714      7712      7747      7755      7715      7719      7725      7722
      7716      7715      7717      7718      7716      7715      7719      7720
      7716      7715      7719      7721      7716      7715      7719      7725
      7717      7715      7719      7720      7717      7715      7719      7721
      7717      7715      7719      7725      7718      7717      7715      7719
      7719      7725      7722      7723      7719      7725      7722      7724
      7719      7725      7722      7726      7720      7719      7725      7722
      7721      7719      7725      7722      7722      7726      7727      7728
      7722      7726      7727      7729      7722      7726      7727      7730
      7723      7722      7726      7727      7724      7722      7726      7727
      7725      7722      7726      7727      7726      7727      7730      7731
      7726      7727      7730      7732      7726      7727      7730      7738
      7727      7730      7732      7733      7727      7730      7738      7739
      7727      7730      7738      7740      7727      7730      7738      7741
      7728      7727      7730      7731      7728      7727      7730      7732
      7728      7727      7730      7738      7729      7727      7730      7731
      7729      7727      7730      7732      7729      7727      7730      7738
      7730      7732      7733      7734      7730      7732      7733      7735
      7730      7738      7741      7742      7731      7730      7732      7733
      7731      7730      7738      7739      7731      7730      7738      7740
      7731      7730      7738      7741      7732      7730      7738      7739
      7732      7730      7738      7740      7732      7730      7738      7741
      7732      7733      7735      7736      7732      7733      7735      7737
      7732      7733      7735      7764      7733      7732      7730      7738
      7733      7735      7764      7765      7733      7735      7764      7766
      7733      7735      7764      7767      7734      7733      7735      7736
      7734      7733      7735      7737      7734      7733      7735      7764
      7735      7764      7767      7768      7735      7764      7767      7769
      7735      7764      7767      7770      7736      7735      7764      7765
      7736      7735      7764      7766      7736      7735      7764      7767
      7737      7735      7764      7765      7737      7735      7764      7766
      7737      7735      7764      7767      7738      7741      7742      7743
      7738      7741      7742      7744      7739      7738      7741      7742
      7740      7738      7741      7742      7741      7742      7744      7745
      7741      7742      7744      7746      7741      7742      7744      7811
      7742      7744      7811      7812      7742      7744      7811      7813
      7742      7744      7811      7814      7743      7742      7744      7745
      7743      7742      7744      7746      7743      7742      7744      7811
      7744      7811      7814      7815      7744      7811      7814      7816
      7744      7811      7814      7817      7745      7744      7811      7812
      7745      7744      7811      7813      7745      7744      7811      7814
      7746      7744      7811      7812      7746      7744      7811      7813
      7746      7744      7811      7814      7747      7749      7750      7751
      7747      7749      7750      7752      7747      7755      7758      7759
      7748      7747      7749      7750      7748      7747      7755      7756
      7748      7747      7755      7757      7748      7747      7755      7758
      7749      7747      7755      7756      7749      7747      7755      7757
      7749      7747      7755      7758      7749      7750      7752      7753
      7749      7750      7752      7754      7749      7750      7752      7854
      7750      7749      7747      7755      7750      7752      7854      7855
      7750      7752      7854      7856      7750      7752      7854      7857
      7751      7750      7752      7753      7751      7750      7752      7754
      7751      7750      7752      7854      7752      7854      7857      7858
      7752      7854      7857      7859      7752      7854      7857      7860
      7753      7752      7854      7855      7753      7752      7854      7856
      7753      7752      7854      7857      7754      7752      7854      7855
      7754      7752      7854      7856      7754      7752      7854      7857
      7755      7758      7759      7760      7755      7758      7759      7761
      7756      7755      7758      7759      7757      7755      7758      7759
      7758      7759      7761      7762      7758      7759      7761      7763
      7758      7759      7761      7901      7759      7761      7901      7902
      7759      7761      7901      7903      7759      7761      7901      7904
      7760      7759      7761      7762      7760      7759      7761      7763
      7760      7759      7761      7901      7761      7901      7904      7905
      7761      7901      7904      7906      7761      7901      7904      7907
      7762      7761      7901      7902      7762      7761      7901      7903
      7762      7761      7901      7904      7763      7761      7901      7902
      7763      7761      7901      7903      7763      7761      7901      7904
      7764      7767      7770      7771      7764      7767      7770      7772
      7764      7767      7770      7773      7765      7764      7767      7768
      7765      7764      7767      7769      7765      7764      7767      7770
      7766      7764      7767      7768      7766      7764      7767      7769
      7766      7764      7767      7770      7767      7770      7773      7774
      7767      7770      7773      7775      7767      7770      7773      7776
      7768      7767      7770      7771      7768      7767      7770      7772
      7768      7767      7770      7773      7769      7767      7770      7771
      7769      7767      7770      7772      7769      7767      7770      7773
      7770      7773      7776      7777      7770      7773      7776      7778
      7770      7773      7776      7779      7771      7770      7773      7774
      7771      7770      7773      7775      7771      7770      7773      7776
      7772      7770      7773      7774      7772      7770      7773      7775
      7772      7770      7773      7776      7773      7776      7779      7780
      7773      7776      7779      7781      7773      7776      7779      7782
      7774      7773      7776      7777      7774      7773      7776      7778
      7774      7773      7776      7779      7775      7773      7776      7777
      7775      7773      7776      7778      7775      7773      7776      7779
      7776      7779      7782      7783      7776      7779      7782      7784
      7776      7779      7782      7785      7777      7776      7779      7780
      7777      7776      7779      7781      7777      7776      7779      7782
      7778      7776      7779      7780      7778      7776      7779      7781
      7778      7776      7779      7782      7779      7782      7785      7786
      7779      7782      7785      7787      7779      7782      7785      7788
      7780      7779      7782      7783      7780      7779      7782      7784
      7780      7779      7782      7785      7781      7779      7782      7783
      7781      7779      7782      7784      7781      7779      7782      7785
      7782      7785      7788      7789      7782      7785      7788      7790
      7783      7782      7785      7786      7783      7782      7785      7787
      7783      7782      7785      7788      7784      7782      7785      7786
      7784      7782      7785      7787      7784      7782      7785      7788
      7785      7788      7790      7791      7785      7788      7790      7792
      7786      7785      7788      7789      7786      7785      7788      7790
      7787      7785      7788      7789      7787      7785      7788      7790
      7788      7790      7792      7793      7788      7790      7792      7794
      7788      7790      7792      7795      7789      7788      7790      7791
      7789      7788      7790      7792      7790      7792      7795      7796
      7790      7792      7795      7797      7790      7792      7795      7798
      7791      7790      7792      7793      7791      7790      7792      7794
      7791      7790      7792      7795      7792      7795      7798      7799
      7792      7795      7798      7800      7792      7795      7798      7801
      7793      7792      7795      7796      7793      7792      7795      7797
      7793      7792      7795      7798      7794      7792      7795      7796
      7794      7792      7795      7797      7794      7792      7795      7798
      7795      7798      7801      7802      7795      7798      7801      7803
      7795      7798      7801      7804      7796      7795      7798      7799
      7796      7795      7798      7800      7796      7795      7798      7801
      7797      7795      7798      7799      7797      7795      7798      7800
      7797      7795      7798      7801      7798      7801      7804      7805
      7798      7801      7804      7806      7798      7801      7804      7807
      7799      7798      7801      7802      7799      7798      7801      7803
      7799      7798      7801      7804      7800      7798      7801      7802
      7800      7798      7801      7803      7800      7798      7801      7804
      7801      7804      7807      7808      7801      7804      7807      7809
      7801      7804      7807      7810      7802      7801      7804      7805
      7802      7801      7804      7806      7802      7801      7804      7807
      7803      7801      7804      7805      7803      7801      7804      7806
      7803      7801      7804      7807      7805      7804      7807      7808
      7805      7804      7807      7809      7805      7804      7807      7810
      7806      7804      7807      7808      7806      7804      7807      7809
      7806      7804      7807      7810      7811      7814      7817      7818
      7811      7814      7817      7819      7811      7814      7817      7820
      7812      7811      7814      7815      7812      7811      7814      7816
      7812      7811      7814      7817      7813      7811      7814      7815
      7813      7811      7814      7816      7813      7811      7814      7817
      7814      7817      7820      7821      7814      7817      7820      7822
      7814      7817      7820      7823      7815      7814      7817      7818
      7815      7814      7817      7819      7815      7814      7817      7820
      7816      7814      7817      7818      7816      7814      7817      7819
      7816      7814      7817      7820      7817      7820      7823      7824
      7817      7820      7823      7825      7817      7820      7823      7826
      7818      7817      7820      7821      7818      7817      7820      7822
      7818      7817      7820      7823      7819      7817      7820      7821
      7819      7817      7820      7822      7819      7817      7820      7823
      7820      7823      7826      7827      7820      7823      7826      7828
      7820      7823      7826      7829      7821      7820      7823      7824
      7821      7820      7823      7825      7821      7820      7823      7826
      7822      7820      7823      7824      7822      7820      7823      7825
      7822      7820      7823      7826      7823      7826      7829      7830
      7823      7826      7829      7831      7823      7826      7829      7832
      7824      7823      7826      7827      7824      7823      7826      7828
      7824      7823      7826      7829      7825      7823      7826      7827
      7825      7823      7826      7828      7825      7823      7826      7829
      7826      7829      7832      7833      7826      7829      7832      7834
      7826      7829      7832      7835      7827      7826      7829      7830
      7827      7826      7829      7831      7827      7826      7829      7832
      7828      7826      7829      7830      7828      7826      7829      7831
      7828      7826      7829      7832      7829      7832      7835      7836
      7829      7832      7835      7837      7829      7832      7835      7838
      7830      7829      7832      7833      7830      7829      7832      7834
      7830      7829      7832      7835      7831      7829      7832      7833
      7831      7829      7832      7834      7831      7829      7832      7835
      7832      7835      7838      7839      7832      7835      7838      7840
      7832      7835      7838      7841      7833      7832      7835      7836
      7833      7832      7835      7837      7833      7832      7835      7838
      7834      7832      7835      7836      7834      7832      7835      7837
      7834      7832      7835      7838      7835      7838      7841      7842
      7835      7838      7841      7843      7835      7838      7841      7844
      7836      7835      7838      7839      7836      7835      7838      7840
      7836      7835      7838      7841      7837      7835      7838      7839
      7837      7835      7838      7840      7837      7835      7838      7841
      7838      7841      7844      7845      7838      7841      7844      7846
      7838      7841      7844      7847      7839      7838      7841      7842
      7839      7838      7841      7843      7839      7838      7841      7844
      7840      7838      7841      7842      7840      7838      7841      7843
      7840      7838      7841      7844      7841      7844      7847      7848
      7841      7844      7847      7849      7841      7844      7847      7850
      7842      7841      7844      7845      7842      7841      7844      7846
      7842      7841      7844      7847      7843      7841      7844      7845
      7843      7841      7844      7846      7843      7841      7844      7847
      7844      7847      7850      7851      7844      7847      7850      7852
      7844      7847      7850      7853      7845      7844      7847      7848
      7845      7844      7847      7849      7845      7844      7847      7850
      7846      7844      7847      7848      7846      7844      7847      7849
      7846      7844      7847      7850      7848      7847      7850      7851
      7848      7847      7850      7852      7848      7847      7850      7853
      7849      7847      7850      7851      7849      7847      7850      7852
      7849      7847      7850      7853      7854      7857      7860      7861
      7854      7857      7860      7862      7854      7857      7860      7863
      7855      7854      7857      7858      7855      7854      7857      7859
      7855      7854      7857      7860      7856      7854      7857      7858
      7856      7854      7857      7859      7856      7854      7857      7860
      7857      7860      7863      7864      7857      7860      7863      7865
      7857      7860      7863      7866      7858      7857      7860      7861
      7858      7857      7860      7862      7858      7857      7860      7863
      7859      7857      7860      7861      7859      7857      7860      7862
      7859      7857      7860      7863      7860      7863      7866      7867
      7860      7863      7866      7868      7860      7863      7866      7869
      7861      7860      7863      7864      7861      7860      7863      7865
      7861      7860      7863      7866      7862      7860      7863      7864
      7862      7860      7863      7865      7862      7860      7863      7866
      7863      7866      7869      7870      7863      7866      7869      7871
      7863      7866      7869      7872      7864      7863      7866      7867
      7864      7863      7866      7868      7864      7863      7866      7869
      7865      7863      7866      7867      7865      7863      7866      7868
      7865      7863      7866      7869      7866      7869      7872      7873
      7866      7869      7872      7874      7866      7869      7872      7875
      7867      7866      7869      7870      7867      7866      7869      7871
      7867      7866      7869      7872      7868      7866      7869      7870
      7868      7866      7869      7871      7868      7866      7869      7872
      7869      7872      7875      7876      7869      7872      7875      7877
      7869      7872      7875      7878      7870      7869      7872      7873
      7870      7869      7872      7874      7870      7869      7872      7875
      7871      7869      7872      7873      7871      7869      7872      7874
      7871      7869      7872      7875      7872      7875      7878      7879
      7872      7875      7878      7880      7873      7872      7875      7876
      7873      7872      7875      7877      7873      7872      7875      7878
      7874      7872      7875      7876      7874      7872      7875      7877
      7874      7872      7875      7878      7875      7878      7880      7881
      7875      7878      7880      7882      7876      7875      7878      7879
      7876      7875      7878      7880      7877      7875      7878      7879
      7877      7875      7878      7880      7878      7880      7882      7883
      7878      7880      7882      7884      7878      7880      7882      7885
      7879      7878      7880      7881      7879      7878      7880      7882
      7880      7882      7885      7886      7880      7882      7885      7887
      7880      7882      7885      7888      7881      7880      7882      7883
      7881      7880      7882      7884      7881      7880      7882      7885
      7882      7885      7888      7889      7882      7885      7888      7890
      7882      7885      7888      7891      7883      7882      7885      7886
      7883      7882      7885      7887      7883      7882      7885      7888
      7884      7882      7885      7886      7884      7882      7885      7887
      7884      7882      7885      7888      7885      7888      7891      7892
      7885      7888      7891      7893      7885      7888      7891      7894
      7886      7885      7888      7889      7886      7885      7888      7890
      7886      7885      7888      7891      7887      7885      7888      7889
      7887      7885      7888      7890      7887      7885      7888      7891
      7888      7891      7894      7895      7888      7891      7894      7896
      7888      7891      7894      7897      7889      7888      7891      7892
      7889      7888      7891      7893      7889      7888      7891      7894
      7890      7888      7891      7892      7890      7888      7891      7893
      7890      7888      7891      7894      7891      7894      7897      7898
      7891      7894      7897      7899      7891      7894      7897      7900
      7892      7891      7894      7895      7892      7891      7894      7896
      7892      7891      7894      7897      7893      7891      7894      7895
      7893      7891      7894      7896      7893      7891      7894      7897
      7895      7894      7897      7898      7895      7894      7897      7899
      7895      7894      7897      7900      7896      7894      7897      7898
      7896      7894      7897      7899      7896      7894      7897      7900
      7901      7904      7907      7908      7901      7904      7907      7909
      7901      7904      7907      7910      7902      7901      7904      7905
      7902      7901      7904      7906      7902      7901      7904      7907
      7903      7901      7904      7905      7903      7901      7904      7906
      7903      7901      7904      7907      7904      7907      7910      7911
      7904      7907      7910      7912      7904      7907      7910      7913
      7905      7904      7907      7908      7905      7904      7907      7909
      7905      7904      7907      7910      7906      7904      7907      7908
      7906      7904      7907      7909      7906      7904      7907      7910
      7907      7910      7913      7914      7907      7910      7913      7915
      7907      7910      7913      7916      7908      7907      7910      7911
      7908      7907      7910      7912      7908      7907      7910      7913
      7909      7907      7910      7911      7909      7907      7910      7912
      7909      7907      7910      7913      7910      7913      7916      7917
      7910      7913      7916      7918      7910      7913      7916      7919
      7911      7910      7913      7914      7911      7910      7913      7915
      7911      7910      7913      7916      7912      7910      7913      7914
      7912      7910      7913      7915      7912      7910      7913      7916
      7913      7916      7919      7920      7913      7916      7919      7921
      7913      7916      7919      7922      7914      7913      7916      7917
      7914      7913      7916      7918      7914      7913      7916      7919
      7915      7913      7916      7917      7915      7913      7916      7918
      7915      7913      7916      7919      7916      7919      7922      7923
      7916      7919      7922      7924      7916      7919      7922      7925
      7917      7916      7919      7920      7917      7916      7919      7921
      7917      7916      7919      7922      7918      7916      7919      7920
      7918      7916      7919      7921      7918      7916      7919      7922
      7919      7922      7925      7926      7919      7922      7925      7927
      7919      7922      7925      7928      7920      7919      7922      7923
      7920      7919      7922      7924      7920      7919      7922      7925
      7921      7919      7922      7923      7921      7919      7922      7924
      7921      7919      7922      7925      7922      7925      7928      7929
      7922      7925      7928      7930      7922      7925      7928      7931
      7923      7922      7925      7926      7923      7922      7925      7927
      7923      7922      7925      7928      7924      7922      7925      7926
      7924      7922      7925      7927      7924      7922      7925      7928
      7925      7928      7931      7932      7925      7928      7931      7933
      7925      7928      7931      7934      7926      7925      7928      7929
      7926      7925      7928      7930      7926      7925      7928      7931
      7927      7925      7928      7929      7927      7925      7928      7930
      7927      7925      7928      7931      7928      7931      7934      7935
      7928      7931      7934      7936      7928      7931      7934      7937
      7929      7928      7931      7932      7929      7928      7931      7933
      7929      7928      7931      7934      7930      7928      7931      7932
      7930      7928      7931      7933      7930      7928      7931      7934
      7931      7934      7937      7938      7931      7934      7937      7939
      7931      7934      7937      7940      7932      7931      7934      7935
      7932      7931      7934      7936      7932      7931      7934      7937
      7933      7931      7934      7935      7933      7931      7934      7936
      7933      7931      7934      7937      7934      7937      7940      7941
      7934      7937      7940      7942      7934      7937      7940      7943
      7935      7934      7937      7938      7935      7934      7937      7939
      7935      7934      7937      7940      7936      7934      7937      7938
      7936      7934      7937      7939      7936      7934      7937      7940
      7938      7937      7940      7941      7938      7937      7940      7942
      7938      7937      7940      7943      7939      7937      7940      7941
      7939      7937      7940      7942      7939      7937      7940      7943
      7944      7948      7951      7952      7944      7948      7951      7953
      7944      7948      7951      7958      7945      7944      7948      7949
      7945      7944      7948      7950      7945      7944      7948      7951
      7946      7944      7948      7949      7946      7944      7948      7950
      7946      7944      7948      7951      7947      7944      7948      7949
      7947      7944      7948      7950      7947      7944      7948      7951
      7948      7951      7958      7954      7949      7948      7951      7952
      7949      7948      7951      7953      7949      7948      7951      7958
      7950      7948      7951      7952      7950      7948      7951      7953
      7950      7948      7951      7958      7951      7958      7954      7955
      7951      7958      7954      7956      7951      7958      7954      7957
      7952      7951      7958      7954      7953      7951      7958      7954
      7954      7957      7959      7960      7954      7957      7959      7961
      7954      7957      7959      7962      7955      7954      7957      7959
      7956      7954      7957      7959      7957      7959      7962      7963
      7957      7959      7962      7964      7957      7959      7962      7970
      7958      7954      7957      7959      7959      7962      7964      7965
      7959      7962      7970      7971      7959      7962      7970      7972
      7959      7962      7970      7973      7960      7959      7962      7963
      7960      7959      7962      7964      7960      7959      7962      7970
      7961      7959      7962      7963      7961      7959      7962      7964
      7961      7959      7962      7970      7962      7964      7965      7966
      7962      7964      7965      7967      7962      7970      7973      7974
      7963      7962      7964      7965      7963      7962      7970      7971
      7963      7962      7970      7972      7963      7962      7970      7973
      7964      7962      7970      7971      7964      7962      7970      7972
      7964      7962      7970      7973      7964      7965      7967      7968
      7964      7965      7967      7969      7964      7965      7967      7979
      7965      7964      7962      7970      7965      7967      7979      7980
      7965      7967      7979      7981      7965      7967      7979      7982
      7966      7965      7967      7968      7966      7965      7967      7969
      7966      7965      7967      7979      7967      7979      7982      7983
      7967      7979      7982      7984      7967      7979      7982      7985
      7968      7967      7979      7980      7968      7967      7979      7981
      7968      7967      7979      7982      7969      7967      7979      7980
      7969      7967      7979      7981      7969      7967      7979      7982
      7970      7973      7974      7975      7970      7973      7974      7976
      7971      7970      7973      7974      7972      7970      7973      7974
      7973      7974      7976      7977      7973      7974      7976      7978
      7973      7974      7976      8026      7974      7976      8026      8027
      7974      7976      8026      8028      7974      7976      8026      8029
      7975      7974      7976      7977      7975      7974      7976      7978
      7975      7974      7976      8026      7976      8026      8029      8030
      7976      8026      8029      8031      7976      8026      8029      8032
      7977      7976      8026      8027      7977      7976      8026      8028
      7977      7976      8026      8029      7978      7976      8026      8027
      7978      7976      8026      8028      7978      7976      8026      8029
      7979      7982      7985      7986      7979      7982      7985      7987
      7979      7982      7985      7988      7980      7979      7982      7983
      7980      7979      7982      7984      7980      7979      7982      7985
      7981      7979      7982      7983      7981      7979      7982      7984
      7981      7979      7982      7985      7982      7985      7988      7989
      7982      7985      7988      7990      7982      7985      7988      7991
      7983      7982      7985      7986      7983      7982      7985      7987
      7983      7982      7985      7988      7984      7982      7985      7986
      7984      7982      7985      7987      7984      7982      7985      7988
      7985      7988      7991      7992      7985      7988      7991      7993
      7985      7988      7991      7994      7986      7985      7988      7989
      7986      7985      7988      7990      7986      7985      7988      7991
      7987      7985      7988      7989      7987      7985      7988      7990
      7987      7985      7988      7991      7988      7991      7994      7995
      7988      7991      7994      7996      7988      7991      7994      7997
      7989      7988      7991      7992      7989      7988      7991      7993
      7989      7988      7991      7994      7990      7988      7991      7992
      7990      7988      7991      7993      7990      7988      7991      7994
      7991      7994      7997      7998      7991      7994      7997      7999
      7992      7991      7994      7995      7992      7991      7994      7996
      7992      7991      7994      7997      7993      7991      7994      7995
      7993      7991      7994      7996      7993      7991      7994      7997
      7994      7997      7999      8000      7994      7997      7999      8001
      7995      7994      7997      7998      7995      7994      7997      7999
      7996      7994      7997      7998      7996      7994      7997      7999
      7997      7999      8001      8002      7997      7999      8001      8003
      7997      7999      8001      8004      7998      7997      7999      8000
      7998      7997      7999      8001      7999      8001      8004      8005
      7999      8001      8004      8006      7999      8001      8004      8007
      8000      7999      8001      8002      8000      7999      8001      8003
      8000      7999      8001      8004      8001      8004      8007      8008
      8001      8004      8007      8009      8001      8004      8007      8010
      8002      8001      8004      8005      8002      8001      8004      8006
      8002      8001      8004      8007      8003      8001      8004      8005
      8003      8001      8004      8006      8003      8001      8004      8007
      8004      8007      8010      8011      8004      8007      8010      8012
      8004      8007      8010      8013      8005      8004      8007      8008
      8005      8004      8007      8009      8005      8004      8007      8010
      8006      8004      8007      8008      8006      8004      8007      8009
      8006      8004      8007      8010      8007      8010      8013      8014
      8007      8010      8013      8015      8007      8010      8013      8016
      8008      8007      8010      8011      8008      8007      8010      8012
      8008      8007      8010      8013      8009      8007      8010      8011
      8009      8007      8010      8012      8009      8007      8010      8013
      8010      8013      8016      8017      8010      8013      8016      8018
      8010      8013      8016      8019      8011      8010      8013      8014
      8011      8010      8013      8015      8011      8010      8013      8016
      8012      8010      8013      8014      8012      8010      8013      8015
      8012      8010      8013      8016      8013      8016      8019      8020
      8013      8016      8019      8021      8013      8016      8019      8022
      8014      8013      8016      8017      8014      8013      8016      8018
      8014      8013      8016      8019      8015      8013      8016      8017
      8015      8013      8016      8018      8015      8013      8016      8019
      8016      8019      8022      8023      8016      8019      8022      8024
      8016      8019      8022      8025      8017      8016      8019      8020
      8017      8016      8019      8021      8017      8016      8019      8022
      8018      8016      8019      8020      8018      8016      8019      8021
      8018      8016      8019      8022      8020      8019      8022      8023
      8020      8019      8022      8024      8020      8019      8022      8025
      8021      8019      8022      8023      8021      8019      8022      8024
      8021      8019      8022      8025      8026      8029      8032      8033
      8026      8029      8032      8034      8026      8029      8032      8035
      8027      8026      8029      8030      8027      8026      8029      8031
      8027      8026      8029      8032      8028      8026      8029      8030
      8028      8026      8029      8031      8028      8026      8029      8032
      8029      8032      8035      8036      8029      8032      8035      8037
      8029      8032      8035      8038      8030      8029      8032      8033
      8030      8029      8032      8034      8030      8029      8032      8035
      8031      8029      8032      8033      8031      8029      8032      8034
      8031      8029      8032      8035      8032      8035      8038      8039
      8032      8035      8038      8040      8032      8035      8038      8041
      8033      8032      8035      8036      8033      8032      8035      8037
      8033      8032      8035      8038      8034      8032      8035      8036
      8034      8032      8035      8037      8034      8032      8035      8038
      8035      8038      8041      8042      8035      8038      8041      8043
      8035      8038      8041      8044      8036      8035      8038      8039
      8036      8035      8038      8040      8036      8035      8038      8041
      8037      8035      8038      8039      8037      8035      8038      8040
      8037      8035      8038      8041      8038      8041      8044      8045
      8038      8041      8044      8046      8038      8041      8044      8047
      8039      8038      8041      8042      8039      8038      8041      8043
      8039      8038      8041      8044      8040      8038      8041      8042
      8040      8038      8041      8043      8040      8038      8041      8044
      8041      8044      8047      8048      8041      8044      8047      8049
      8041      8044      8047      8050      8042      8041      8044      8045
      8042      8041      8044      8046      8042      8041      8044      8047
      8043      8041      8044      8045      8043      8041      8044      8046
      8043      8041      8044      8047      8044      8047      8050      8051
      8044      8047      8050      8052      8044      8047      8050      8053
      8045      8044      8047      8048      8045      8044      8047      8049
      8045      8044      8047      8050      8046      8044      8047      8048
      8046      8044      8047      8049      8046      8044      8047      8050
      8047      8050      8053      8054      8047      8050      8053      8055
      8047      8050      8053      8056      8048      8047      8050      8051
      8048      8047      8050      8052      8048      8047      8050      8053
      8049      8047      8050      8051      8049      8047      8050      8052
      8049      8047      8050      8053      8050      8053      8056      8057
      8050      8053      8056      8058      8050      8053      8056      8059
      8051      8050      8053      8054      8051      8050      8053      8055
      8051      8050      8053      8056      8052      8050      8053      8054
      8052      8050      8053      8055      8052      8050      8053      8056
      8053      8056      8059      8060      8053      8056      8059      8061
      8053      8056      8059      8062      8054      8053      8056      8057
      8054      8053      8056      8058      8054      8053      8056      8059
      8055      8053      8056      8057      8055      8053      8056      8058
      8055      8053      8056      8059      8056      8059      8062      8063
      8056      8059      8062      8064      8056      8059      8062      8065
      8057      8056      8059      8060      8057      8056      8059      8061
      8057      8056      8059      8062      8058      8056      8059      8060
      8058      8056      8059      8061      8058      8056      8059      8062
      8059      8062      8065      8066      8059      8062      8065      8067
      8059      8062      8065      8068      8060      8059      8062      8063
      8060      8059      8062      8064      8060      8059      8062      8065
      8061      8059      8062      8063      8061      8059      8062      8064
      8061      8059      8062      8065      8063      8062      8065      8066
      8063      8062      8065      8067      8063      8062      8065      8068
      8064      8062      8065      8066      8064      8062      8065      8067
      8064      8062      8065      8068      8069      8073      8076      8077
      8069      8073      8076      8078      8069      8073      8076      8083
      8070      8069      8073      8074      8070      8069      8073      8075
      8070      8069      8073      8076      8071      8069      8073      8074
      8071      8069      8073      8075      8071      8069      8073      8076
      8072      8069      8073      8074      8072      8069      8073      8075
      8072      8069      8073      8076      8073      8076      8083      8079
      8074      8073      8076      8077      8074      8073      8076      8078
      8074      8073      8076      8083      8075      8073      8076      8077
      8075      8073      8076      8078      8075      8073      8076      8083
      8076      8083      8079      8080      8076      8083      8079      8081
      8076      8083      8079      8082      8077      8076      8083      8079
      8078      8076      8083      8079      8079      8082      8084      8085
      8079      8082      8084      8086      8079      8082      8084      8087
      8080      8079      8082      8084      8081      8079      8082      8084
      8082      8084      8087      8088      8082      8084      8087      8089
      8082      8084      8087      8095      8083      8079      8082      8084
      8084      8087      8089      8090      8084      8087      8095      8096
      8084      8087      8095      8097      8084      8087      8095      8098
      8085      8084      8087      8088      8085      8084      8087      8089
      8085      8084      8087      8095      8086      8084      8087      8088
      8086      8084      8087      8089      8086      8084      8087      8095
      8087      8089      8090      8091      8087      8089      8090      8092
      8087      8095      8098      8099      8088      8087      8089      8090
      8088      8087      8095      8096      8088      8087      8095      8097
      8088      8087      8095      8098      8089      8087      8095      8096
      8089      8087      8095      8097      8089      8087      8095      8098
      8089      8090      8092      8093      8089      8090      8092      8094
      8089      8090      8092      8104      8090      8089      8087      8095
      8090      8092      8104      8105      8090      8092      8104      8106
      8090      8092      8104      8107      8091      8090      8092      8093
      8091      8090      8092      8094      8091      8090      8092      8104
      8092      8104      8107      8108      8092      8104      8107      8109
      8092      8104      8107      8110      8093      8092      8104      8105
      8093      8092      8104      8106      8093      8092      8104      8107
      8094      8092      8104      8105      8094      8092      8104      8106
      8094      8092      8104      8107      8095      8098      8099      8100
      8095      8098      8099      8101      8096      8095      8098      8099
      8097      8095      8098      8099      8098      8099      8101      8102
      8098      8099      8101      8103      8098      8099      8101      8145
      8099      8101      8145      8146      8099      8101      8145      8147
      8099      8101      8145      8148      8100      8099      8101      8102
      8100      8099      8101      8103      8100      8099      8101      8145
      8101      8145      8148      8149      8101      8145      8148      8150
      8101      8145      8148      8151      8102      8101      8145      8146
      8102      8101      8145      8147      8102      8101      8145      8148
      8103      8101      8145      8146      8103      8101      8145      8147
      8103      8101      8145      8148      8104      8107      8110      8111
      8104      8107      8110      8112      8104      8107      8110      8113
      8105      8104      8107      8108      8105      8104      8107      8109
      8105      8104      8107      8110      8106      8104      8107      8108
      8106      8104      8107      8109      8106      8104      8107      8110
      8107      8110      8113      8114      8107      8110      8113      8115
      8107      8110      8113      8116      8108      8107      8110      8111
      8108      8107      8110      8112      8108      8107      8110      8113
      8109      8107      8110      8111      8109      8107      8110      8112
      8109      8107      8110      8113      8110      8113      8116      8117
      8110      8113      8116      8118      8110      8113      8116      8119
      8111      8110      8113      8114      8111      8110      8113      8115
      8111      8110      8113      8116      8112      8110      8113      8114
      8112      8110      8113      8115      8112      8110      8113      8116
      8113      8116      8119      8120      8113      8116      8119      8121
      8113      8116      8119      8122      8114      8113      8116      8117
      8114      8113      8116      8118      8114      8113      8116      8119
      8115      8113      8116      8117      8115      8113      8116      8118
      8115      8113      8116      8119      8116      8119      8122      8123
      8116      8119      8122      8124      8117      8116      8119      8120
      8117      8116      8119      8121      8117      8116      8119      8122
      8118      8116      8119      8120      8118      8116      8119      8121
      8118      8116      8119      8122      8119      8122      8124      8125
      8119      8122      8124      8126      8120      8119      8122      8123
      8120      8119      8122      8124      8121      8119      8122      8123
      8121      8119      8122      8124      8122      8124      8126      8127
      8122      8124      8126      8128      8122      8124      8126      8129
      8123      8122      8124      8125      8123      8122      8124      8126
      8124      8126      8129      8130      8124      8126      8129      8131
      8124      8126      8129      8132      8125      8124      8126      8127
      8125      8124      8126      8128      8125      8124      8126      8129
      8126      8129      8132      8133      8126      8129      8132      8134
      8126      8129      8132      8135      8127      8126      8129      8130
      8127      8126      8129      8131      8127      8126      8129      8132
      8128      8126      8129      8130      8128      8126      8129      8131
      8128      8126      8129      8132      8129      8132      8135      8136
      8129      8132      8135      8137      8129      8132      8135      8138
      8130      8129      8132      8133      8130      8129      8132      8134
      8130      8129      8132      8135      8131      8129      8132      8133
      8131      8129      8132      8134      8131      8129      8132      8135
      8132      8135      8138      8139      8132      8135      8138      8140
      8132      8135      8138      8141      8133      8132      8135      8136
      8133      8132      8135      8137      8133      8132      8135      8138
      8134      8132      8135      8136      8134      8132      8135      8137
      8134      8132      8135      8138      8135      8138      8141      8142
      8135      8138      8141      8143      8135      8138      8141      8144
      8136      8135      8138      8139      8136      8135      8138      8140
      8136      8135      8138      8141      8137      8135      8138      8139
      8137      8135      8138      8140      8137      8135      8138      8141
      8139      8138      8141      8142      8139      8138      8141      8143
      8139      8138      8141      8144      8140      8138      8141      8142
      8140      8138      8141      8143      8140      8138      8141      8144
      8145      8148      8151      8152      8145      8148      8151      8153
      8145      8148      8151      8154      8146      8145      8148      8149
      8146      8145      8148      8150      8146      8145      8148      8151
      8147      8145      8148      8149      8147      8145      8148      8150
      8147      8145      8148      8151      8148      8151      8154      8155
      8148      8151      8154      8156      8148      8151      8154      8157
      8149      8148      8151      8152      8149      8148      8151      8153
      8149      8148      8151      8154      8150      8148      8151      8152
      8150      8148      8151      8153      8150      8148      8151      8154
      8151      8154      8157      8158      8151      8154      8157      8159
      8151      8154      8157      8160      8152      8151      8154      8155
      8152      8151      8154      8156      8152      8151      8154      8157
      8153      8151      8154      8155      8153      8151      8154      8156
      8153      8151      8154      8157      8154      8157      8160      8161
      8154      8157      8160      8162      8154      8157      8160      8163
      8155      8154      8157      8158      8155      8154      8157      8159
      8155      8154      8157      8160      8156      8154      8157      8158
      8156      8154      8157      8159      8156      8154      8157      8160
      8157      8160      8163      8164      8157      8160      8163      8165
      8158      8157      8160      8161      8158      8157      8160      8162
      8158      8157      8160      8163      8159      8157      8160      8161
      8159      8157      8160      8162      8159      8157      8160      8163
      8160      8163      8165      8166      8160      8163      8165      8167
      8161      8160      8163      8164      8161      8160      8163      8165
      8162      8160      8163      8164      8162      8160      8163      8165
      8163      8165      8167      8168      8163      8165      8167      8169
      8163      8165      8167      8170      8164      8163      8165      8166
      8164      8163      8165      8167      8165      8167      8170      8171
      8165      8167      8170      8172      8165      8167      8170      8173
      8166      8165      8167      8168      8166      8165      8167      8169
      8166      8165      8167      8170      8167      8170      8173      8174
      8167      8170      8173      8175      8167      8170      8173      8176
      8168      8167      8170      8171      8168      8167      8170      8172
      8168      8167      8170      8173      8169      8167      8170      8171
      8169      8167      8170      8172      8169      8167      8170      8173
      8170      8173      8176      8177      8170      8173      8176      8178
      8170      8173      8176      8179      8171      8170      8173      8174
      8171      8170      8173      8175      8171      8170      8173      8176
      8172      8170      8173      8174      8172      8170      8173      8175
      8172      8170      8173      8176      8173      8176      8179      8180
      8173      8176      8179      8181      8173      8176      8179      8182
      8174      8173      8176      8177      8174      8173      8176      8178
      8174      8173      8176      8179      8175      8173      8176      8177
      8175      8173      8176      8178      8175      8173      8176      8179
      8176      8179      8182      8183      8176      8179      8182      8184
      8176      8179      8182      8185      8177      8176      8179      8180
      8177      8176      8179      8181      8177      8176      8179      8182
      8178      8176      8179      8180      8178      8176      8179      8181
      8178      8176      8179      8182      8179      8182      8185      8186
      8179      8182      8185      8187      8179      8182      8185      8188
      8180      8179      8182      8183      8180      8179      8182      8184
      8180      8179      8182      8185      8181      8179      8182      8183
      8181      8179      8182      8184      8181      8179      8182      8185
      8182      8185      8188      8189      8182      8185      8188      8190
      8182      8185      8188      8191      8183      8182      8185      8186
      8183      8182      8185      8187      8183      8182      8185      8188
      8184      8182      8185      8186      8184      8182      8185      8187
      8184      8182      8185      8188      8186      8185      8188      8189
      8186      8185      8188      8190      8186      8185      8188      8191
      8187      8185      8188      8189      8187      8185      8188      8190
      8187      8185      8188      8191      8192      8196      8199      8200
      8192      8196      8199      8201      8192      8196      8199      8206
      8193      8192      8196      8197      8193      8192      8196      8198
      8193      8192      8196      8199      8194      8192      8196      8197
      8194      8192      8196      8198      8194      8192      8196      8199
      8195      8192      8196      8197      8195      8192      8196      8198
      8195      8192      8196      8199      8196      8199      8206      8202
      8197      8196      8199      8200      8197      8196      8199      8201
      8197      8196      8199      8206      8198      8196      8199      8200
      8198      8196      8199      8201      8198      8196      8199      8206
      8199      8206      8202      8203      8199      8206      8202      8204
      8199      8206      8202      8205      8200      8199      8206      8202
      8201      8199      8206      8202      8202      8205      8207      8208
      8202      8205      8207      8209      8202      8205      8207      8210
      8203      8202      8205      8207      8204      8202      8205      8207
      8205      8207      8210      8211      8205      8207      8210      8212
      8205      8207      8210      8218      8206      8202      8205      8207
      8207      8210      8212      8213      8207      8210      8218      8219
      8207      8210      8218      8220      8207      8210      8218      8221
      8208      8207      8210      8211      8208      8207      8210      8212
      8208      8207      8210      8218      8209      8207      8210      8211
      8209      8207      8210      8212      8209      8207      8210      8218
      8210      8212      8213      8214      8210      8212      8213      8215
      8210      8218      8221      8222      8211      8210      8212      8213
      8211      8210      8218      8219      8211      8210      8218      8220
      8211      8210      8218      8221      8212      8210      8218      8219
      8212      8210      8218      8220      8212      8210      8218      8221
      8212      8213      8215      8216      8212      8213      8215      8217
      8212      8213      8215      8227      8213      8212      8210      8218
      8213      8215      8227      8228      8213      8215      8227      8229
      8213      8215      8227      8230      8214      8213      8215      8216
      8214      8213      8215      8217      8214      8213      8215      8227
      8215      8227      8230      8231      8215      8227      8230      8232
      8215      8227      8230      8233      8216      8215      8227      8228
      8216      8215      8227      8229      8216      8215      8227      8230
      8217      8215      8227      8228      8217      8215      8227      8229
      8217      8215      8227      8230      8218      8221      8222      8223
      8218      8221      8222      8224      8219      8218      8221      8222
      8220      8218      8221      8222      8221      8222      8224      8225
      8221      8222      8224      8226      8221      8222      8224      8271
      8222      8224      8271      8272      8222      8224      8271      8273
      8222      8224      8271      8274      8223      8222      8224      8225
      8223      8222      8224      8226      8223      8222      8224      8271
      8224      8271      8274      8275      8224      8271      8274      8276
      8224      8271      8274      8277      8225      8224      8271      8272
      8225      8224      8271      8273      8225      8224      8271      8274
      8226      8224      8271      8272      8226      8224      8271      8273
      8226      8224      8271      8274      8227      8230      8233      8234
      8227      8230      8233      8235      8227      8230      8233      8236
      8228      8227      8230      8231      8228      8227      8230      8232
      8228      8227      8230      8233      8229      8227      8230      8231
      8229      8227      8230      8232      8229      8227      8230      8233
      8230      8233      8236      8237      8230      8233      8236      8238
      8230      8233      8236      8239      8231      8230      8233      8234
      8231      8230      8233      8235      8231      8230      8233      8236
      8232      8230      8233      8234      8232      8230      8233      8235
      8232      8230      8233      8236      8233      8236      8239      8240
      8233      8236      8239      8241      8233      8236      8239      8242
      8234      8233      8236      8237      8234      8233      8236      8238
      8234      8233      8236      8239      8235      8233      8236      8237
      8235      8233      8236      8238      8235      8233      8236      8239
      8236      8239      8242      8243      8236      8239      8242      8244
      8236      8239      8242      8245      8237      8236      8239      8240
      8237      8236      8239      8241      8237      8236      8239      8242
      8238      8236      8239      8240      8238      8236      8239      8241
      8238      8236      8239      8242      8239      8242      8245      8246
      8239      8242      8245      8247      8239      8242      8245      8250
      8240      8239      8242      8243      8240      8239      8242      8244
      8240      8239      8242      8245      8241      8239      8242      8243
      8241      8239      8242      8244      8241      8239      8242      8245
      8242      8245      8247      8248      8242      8245      8247      8249
      8242      8245      8247      8250      8242      8245      8250      8247
      8242      8245      8250      8251      8242      8245      8250      8252
      8243      8242      8245      8246      8243      8242      8245      8247
      8243      8242      8245      8250      8244      8242      8245      8246
      8244      8242      8245      8247      8244      8242      8245      8250
      8245      8247      8250      8251      8245      8247      8250      8252
      8245      8250      8247      8248      8245      8250      8247      8249
      8245      8250      8252      8253      8245      8250      8252      8254
      8245      8250      8252      8255      8246      8245      8247      8248
      8246      8245      8247      8249      8246      8245      8247      8250
      8246      8245      8250      8247      8246      8245      8250      8251
      8246      8245      8250      8252      8247      8245      8250      8251
      8247      8245      8250      8252      8247      8250      8252      8253
      8247      8250      8252      8254      8247      8250      8252      8255
      8248      8247      8245      8250      8248      8247      8250      8251
      8248      8247      8250      8252      8249      8247      8245      8250
      8249      8247      8250      8251      8249      8247      8250      8252
      8250      8252      8255      8256      8250      8252      8255      8257
      8250      8252      8255      8258      8251      8250      8252      8253
      8251      8250      8252      8254      8251      8250      8252      8255
      8252      8255      8258      8259      8252      8255      8258      8260
      8252      8255      8258      8261      8253      8252      8255      8256
      8253      8252      8255      8257      8253      8252      8255      8258
      8254      8252      8255      8256      8254      8252      8255      8257
      8254      8252      8255      8258      8255      8258      8261      8262
      8255      8258      8261      8263      8255      8258      8261      8264
      8256      8255      8258      8259      8256      8255      8258      8260
      8256      8255      8258      8261      8257      8255      8258      8259
      8257      8255      8258      8260      8257      8255      8258      8261
      8258      8261      8264      8265      8258      8261      8264      8266
      8258      8261      8264      8267      8259      8258      8261      8262
      8259      8258      8261      8263      8259      8258      8261      8264
      8260      8258      8261      8262      8260      8258      8261      8263
      8260      8258      8261      8264      8261      8264      8267      8268
      8261      8264      8267      8269      8261      8264      8267      8270
      8262      8261      8264      8265      8262      8261      8264      8266
      8262      8261      8264      8267      8263      8261      8264      8265
      8263      8261      8264      8266      8263      8261      8264      8267
      8265      8264      8267      8268      8265      8264      8267      8269
      8265      8264      8267      8270      8266      8264      8267      8268
      8266      8264      8267      8269      8266      8264      8267      8270
      8271      8274      8277      8278      8271      8274      8277      8279
      8271      8274      8277      8280      8272      8271      8274      8275
      8272      8271      8274      8276      8272      8271      8274      8277
      8273      8271      8274      8275      8273      8271      8274      8276
      8273      8271      8274      8277      8274      8277      8280      8281
      8274      8277      8280      8282      8274      8277      8280      8283
      8275      8274      8277      8278      8275      8274      8277      8279
      8275      8274      8277      8280      8276      8274      8277      8278
      8276      8274      8277      8279      8276      8274      8277      8280
      8277      8280      8283      8284      8277      8280      8283      8285
      8277      8280      8283      8286      8278      8277      8280      8281
      8278      8277      8280      8282      8278      8277      8280      8283
      8279      8277      8280      8281      8279      8277      8280      8282
      8279      8277      8280      8283      8280      8283      8286      8287
      8280      8283      8286      8288      8280      8283      8286      8289
      8281      8280      8283      8284      8281      8280      8283      8285
      8281      8280      8283      8286      8282      8280      8283      8284
      8282      8280      8283      8285      8282      8280      8283      8286
      8283      8286      8289      8290      8283      8286      8289      8291
      8283      8286      8289      8292      8284      8283      8286      8287
      8284      8283      8286      8288      8284      8283      8286      8289
      8285      8283      8286      8287      8285      8283      8286      8288
      8285      8283      8286      8289      8286      8289      8292      8293
      8286      8289      8292      8294      8286      8289      8292      8295
      8287      8286      8289      8290      8287      8286      8289      8291
      8287      8286      8289      8292      8288      8286      8289      8290
      8288      8286      8289      8291      8288      8286      8289      8292
      8289      8292      8295      8296      8289      8292      8295      8297
      8289      8292      8295      8298      8290      8289      8292      8293
      8290      8289      8292      8294      8290      8289      8292      8295
      8291      8289      8292      8293      8291      8289      8292      8294
      8291      8289      8292      8295      8292      8295      8298      8299
      8292      8295      8298      8300      8292      8295      8298      8301
      8293      8292      8295      8296      8293      8292      8295      8297
      8293      8292      8295      8298      8294      8292      8295      8296
      8294      8292      8295      8297      8294      8292      8295      8298
      8295      8298      8301      8302      8295      8298      8301      8303
      8295      8298      8301      8304      8296      8295      8298      8299
      8296      8295      8298      8300      8296      8295      8298      8301
      8297      8295      8298      8299      8297      8295      8298      8300
      8297      8295      8298      8301      8298      8301      8304      8305
      8298      8301      8304      8306      8298      8301      8304      8307
      8299      8298      8301      8302      8299      8298      8301      8303
      8299      8298      8301      8304      8300      8298      8301      8302
      8300      8298      8301      8303      8300      8298      8301      8304
      8301      8304      8307      8308      8301      8304      8307      8309
      8301      8304      8307      8310      8302      8301      8304      8305
      8302      8301      8304      8306      8302      8301      8304      8307
      8303      8301      8304      8305      8303      8301      8304      8306
      8303      8301      8304      8307      8304      8307      8310      8311
      8304      8307      8310      8312      8304      8307      8310      8313
      8305      8304      8307      8308      8305      8304      8307      8309
      8305      8304      8307      8310      8306      8304      8307      8308
      8306      8304      8307      8309      8306      8304      8307      8310
      8308      8307      8310      8311      8308      8307      8310      8312
      8308      8307      8310      8313      8309      8307      8310      8311
      8309      8307      8310      8312      8309      8307      8310      8313
      8314      8319      8321      8322      8314      8319      8323      8324
      8314      8319      8323      8325      8314      8319      8323      8330
      8315      8314      8317      8318      8315      8314      8319      8320
      8315      8314      8319      8321      8315      8314      8319      8323
      8316      8314      8317      8318      8316      8314      8319      8320
      8316      8314      8319      8321      8316      8314      8319      8323
      8317      8314      8319      8320      8317      8314      8319      8321
      8317      8314      8319      8323      8318      8317      8314      8319
      8319      8323      8330      8326      8320      8319      8321      8322
      8320      8319      8323      8324      8320      8319      8323      8325
      8320      8319      8323      8330      8321      8319      8323      8324
      8321      8319      8323      8325      8321      8319      8323      8330
      8322      8321      8319      8323      8323      8330      8326      8327
      8323      8330      8326      8328      8323      8330      8326      8329
      8324      8323      8330      8326      8325      8323      8330      8326
      8326      8329      8331      8332      8326      8329      8331      8333
      8326      8329      8331      8334      8327      8326      8329      8331
      8328      8326      8329      8331      8329      8331      8334      8335
      8329      8331      8334      8336      8329      8331      8334      8342
      8330      8326      8329      8331      8331      8334      8336      8337
      8331      8334      8342      8343      8331      8334      8342      8344
      8331      8334      8342      8345      8332      8331      8334      8335
      8332      8331      8334      8336      8332      8331      8334      8342
      8333      8331      8334      8335      8333      8331      8334      8336
      8333      8331      8334      8342      8334      8336      8337      8338
      8334      8336      8337      8339      8334      8342      8345      8346
      8335      8334      8336      8337      8335      8334      8342      8343
      8335      8334      8342      8344      8335      8334      8342      8345
      8336      8334      8342      8343      8336      8334      8342      8344
      8336      8334      8342      8345      8336      8337      8339      8340
      8336      8337      8339      8341      8336      8337      8339      8351
      8337      8336      8334      8342      8337      8339      8351      8352
      8337      8339      8351      8353      8337      8339      8351      8354
      8338      8337      8339      8340      8338      8337      8339      8341
      8338      8337      8339      8351      8339      8351      8354      8355
      8339      8351      8354      8356      8339      8351      8354      8357
      8340      8339      8351      8352      8340      8339      8351      8353
      8340      8339      8351      8354      8341      8339      8351      8352
      8341      8339      8351      8353      8341      8339      8351      8354
      8342      8345      8346      8347      8342      8345      8346      8348
      8343      8342      8345      8346      8344      8342      8345      8346
      8345      8346      8348      8349      8345      8346      8348      8350
      8345      8346      8348      8392      8346      8348      8392      8393
      8346      8348      8392      8394      8346      8348      8392      8395
      8347      8346      8348      8349      8347      8346      8348      8350
      8347      8346      8348      8392      8348      8392      8395      8396
      8348      8392      8395      8397      8348      8392      8395      8398
      8349      8348      8392      8393      8349      8348      8392      8394
      8349      8348      8392      8395      8350      8348      8392      8393
      8350      8348      8392      8394      8350      8348      8392      8395
      8351      8354      8357      8358      8351      8354      8357      8359
      8351      8354      8357      8360      8352      8351      8354      8355
      8352      8351      8354      8356      8352      8351      8354      8357
      8353      8351      8354      8355      8353      8351      8354      8356
      8353      8351      8354      8357      8354      8357      8360      8361
      8354      8357      8360      8362      8354      8357      8360      8363
      8355      8354      8357      8358      8355      8354      8357      8359
      8355      8354      8357      8360      8356      8354      8357      8358
      8356      8354      8357      8359      8356      8354      8357      8360
      8357      8360      8363      8364      8357      8360      8363      8365
      8357      8360      8363      8366      8358      8357      8360      8361
      8358      8357      8360      8362      8358      8357      8360      8363
      8359      8357      8360      8361      8359      8357      8360      8362
      8359      8357      8360      8363      8360      8363      8366      8367
      8360      8363      8366      8368      8360      8363      8366      8369
      8361      8360      8363      8364      8361      8360      8363      8365
      8361      8360      8363      8366      8362      8360      8363      8364
      8362      8360      8363      8365      8362      8360      8363      8366
      8363      8366      8369      8370      8363      8366      8369      8371
      8364      8363      8366      8367      8364      8363      8366      8368
      8364      8363      8366      8369      8365      8363      8366      8367
      8365      8363      8366      8368      8365      8363      8366      8369
      8366      8369      8371      8372      8366      8369      8371      8373
      8367      8366      8369      8370      8367      8366      8369      8371
      8368      8366      8369      8370      8368      8366      8369      8371
      8369      8371      8373      8374      8369      8371      8373      8375
      8369      8371      8373      8376      8370      8369      8371      8372
      8370      8369      8371      8373      8371      8373      8376      8377
      8371      8373      8376      8378      8371      8373      8376      8379
      8372      8371      8373      8374      8372      8371      8373      8375
      8372      8371      8373      8376      8373      8376      8379      8380
      8373      8376      8379      8381      8373      8376      8379      8382
      8374      8373      8376      8377      8374      8373      8376      8378
      8374      8373      8376      8379      8375      8373      8376      8377
      8375      8373      8376      8378      8375      8373      8376      8379
      8376      8379      8382      8383      8376      8379      8382      8384
      8376      8379      8382      8385      8377      8376      8379      8380
      8377      8376      8379      8381      8377      8376      8379      8382
      8378      8376      8379      8380      8378      8376      8379      8381
      8378      8376      8379      8382      8379      8382      8385      8386
      8379      8382      8385      8387      8379      8382      8385      8388
      8380      8379      8382      8383      8380      8379      8382      8384
      8380      8379      8382      8385      8381      8379      8382      8383
      8381      8379      8382      8384      8381      8379      8382      8385
      8382      8385      8388      8389      8382      8385      8388      8390
      8382      8385      8388      8391      8383      8382      8385      8386
      8383      8382      8385      8387      8383      8382      8385      8388
      8384      8382      8385      8386      8384      8382      8385      8387
      8384      8382      8385      8388      8386      8385      8388      8389
      8386      8385      8388      8390      8386      8385      8388      8391
      8387      8385      8388      8389      8387      8385      8388      8390
      8387      8385      8388      8391      8392      8395      8398      8399
      8392      8395      8398      8400      8392      8395      8398      8401
      8393      8392      8395      8396      8393      8392      8395      8397
      8393      8392      8395      8398      8394      8392      8395      8396
      8394      8392      8395      8397      8394      8392      8395      8398
      8395      8398      8401      8402      8395      8398      8401      8403
      8395      8398      8401      8404      8396      8395      8398      8399
      8396      8395      8398      8400      8396      8395      8398      8401
      8397      8395      8398      8399      8397      8395      8398      8400
      8397      8395      8398      8401      8398      8401      8404      8405
      8398      8401      8404      8406      8398      8401      8404      8407
      8399      8398      8401      8402      8399      8398      8401      8403
      8399      8398      8401      8404      8400      8398      8401      8402
      8400      8398      8401      8403      8400      8398      8401      8404
      8401      8404      8407      8408      8401      8404      8407      8409
      8401      8404      8407      8410      8402      8401      8404      8405
      8402      8401      8404      8406      8402      8401      8404      8407
      8403      8401      8404      8405      8403      8401      8404      8406
      8403      8401      8404      8407      8404      8407      8410      8411
      8404      8407      8410      8412      8404      8407      8410      8413
      8405      8404      8407      8408      8405      8404      8407      8409
      8405      8404      8407      8410      8406      8404      8407      8408
      8406      8404      8407      8409      8406      8404      8407      8410
      8407      8410      8413      8414      8407      8410      8413      8415
      8407      8410      8413      8416      8408      8407      8410      8411
      8408      8407      8410      8412      8408      8407      8410      8413
      8409      8407      8410      8411      8409      8407      8410      8412
      8409      8407      8410      8413      8410      8413      8416      8417
      8410      8413      8416      8418      8410      8413      8416      8419
      8411      8410      8413      8414      8411      8410      8413      8415
      8411      8410      8413      8416      8412      8410      8413      8414
      8412      8410      8413      8415      8412      8410      8413      8416
      8413      8416      8419      8420      8413      8416      8419      8421
      8413      8416      8419      8422      8414      8413      8416      8417
      8414      8413      8416      8418      8414      8413      8416      8419
      8415      8413      8416      8417      8415      8413      8416      8418
      8415      8413      8416      8419      8416      8419      8422      8423
      8416      8419      8422      8424      8416      8419      8422      8425
      8417      8416      8419      8420      8417      8416      8419      8421
      8417      8416      8419      8422      8418      8416      8419      8420
      8418      8416      8419      8421      8418      8416      8419      8422
      8419      8422      8425      8426      8419      8422      8425      8427
      8419      8422      8425      8428      8420      8419      8422      8423
      8420      8419      8422      8424      8420      8419      8422      8425
      8421      8419      8422      8423      8421      8419      8422      8424
      8421      8419      8422      8425      8422      8425      8428      8429
      8422      8425      8428      8430      8422      8425      8428      8431
      8423      8422      8425      8426      8423      8422      8425      8427
      8423      8422      8425      8428      8424      8422      8425      8426
      8424      8422      8425      8427      8424      8422      8425      8428
      8425      8428      8431      8432      8425      8428      8431      8433
      8425      8428      8431      8434      8426      8425      8428      8429
      8426      8425      8428      8430      8426      8425      8428      8431
      8427      8425      8428      8429      8427      8425      8428      8430
      8427      8425      8428      8431      8429      8428      8431      8432
      8429      8428      8431      8433      8429      8428      8431      8434
      8430      8428      8431      8432      8430      8428      8431      8433
      8430      8428      8431      8434      8435      8439      8442      8443
      8435      8439      8442      8444      8435      8439      8442      8449
      8436      8435      8439      8440      8436      8435      8439      8441
      8436      8435      8439      8442      8437      8435      8439      8440
      8437      8435      8439      8441      8437      8435      8439      8442
      8438      8435      8439      8440      8438      8435      8439      8441
      8438      8435      8439      8442      8439      8442      8449      8445
      8440      8439      8442      8443      8440      8439      8442      8444
      8440      8439      8442      8449      8441      8439      8442      8443
      8441      8439      8442      8444      8441      8439      8442      8449
      8442      8449      8445      8446      8442      8449      8445      8447
      8442      8449      8445      8448      8443      8442      8449      8445
      8444      8442      8449      8445      8445      8448      8450      8451
      8445      8448      8450      8452      8445      8448      8450      8453
      8446      8445      8448      8450      8447      8445      8448      8450
      8448      8450      8453      8454      8448      8450      8453      8455
      8448      8450      8453      8461      8449      8445      8448      8450
      8450      8453      8455      8456      8450      8453      8461      8462
      8450      8453      8461      8463      8450      8453      8461      8464
      8451      8450      8453      8454      8451      8450      8453      8455
      8451      8450      8453      8461      8452      8450      8453      8454
      8452      8450      8453      8455      8452      8450      8453      8461
      8453      8455      8456      8457      8453      8455      8456      8458
      8453      8461      8464      8465      8454      8453      8455      8456
      8454      8453      8461      8462      8454      8453      8461      8463
      8454      8453      8461      8464      8455      8453      8461      8462
      8455      8453      8461      8463      8455      8453      8461      8464
      8455      8456      8458      8459      8455      8456      8458      8460
      8455      8456      8458      8470      8456      8455      8453      8461
      8456      8458      8470      8471      8456      8458      8470      8472
      8456      8458      8470      8473      8457      8456      8458      8459
      8457      8456      8458      8460      8457      8456      8458      8470
      8458      8470      8473      8474      8458      8470      8473      8475
      8458      8470      8473      8476      8459      8458      8470      8471
      8459      8458      8470      8472      8459      8458      8470      8473
      8460      8458      8470      8471      8460      8458      8470      8472
      8460      8458      8470      8473      8461      8464      8465      8466
      8461      8464      8465      8467      8462      8461      8464      8465
      8463      8461      8464      8465      8464      8465      8467      8468
      8464      8465      8467      8469      8464      8465      8467      8514
      8465      8467      8514      8515      8465      8467      8514      8516
      8465      8467      8514      8517      8466      8465      8467      8468
      8466      8465      8467      8469      8466      8465      8467      8514
      8467      8514      8517      8518      8467      8514      8517      8519
      8467      8514      8517      8520      8468      8467      8514      8515
      8468      8467      8514      8516      8468      8467      8514      8517
      8469      8467      8514      8515      8469      8467      8514      8516
      8469      8467      8514      8517      8470      8473      8476      8477
      8470      8473      8476      8478      8470      8473      8476      8479
      8471      8470      8473      8474      8471      8470      8473      8475
      8471      8470      8473      8476      8472      8470      8473      8474
      8472      8470      8473      8475      8472      8470      8473      8476
      8473      8476      8479      8480      8473      8476      8479      8481
      8473      8476      8479      8482      8474      8473      8476      8477
      8474      8473      8476      8478      8474      8473      8476      8479
      8475      8473      8476      8477      8475      8473      8476      8478
      8475      8473      8476      8479      8476      8479      8482      8483
      8476      8479      8482      8484      8476      8479      8482      8485
      8477      8476      8479      8480      8477      8476      8479      8481
      8477      8476      8479      8482      8478      8476      8479      8480
      8478      8476      8479      8481      8478      8476      8479      8482
      8479      8482      8485      8486      8479      8482      8485      8487
      8479      8482      8485      8488      8480      8479      8482      8483
      8480      8479      8482      8484      8480      8479      8482      8485
      8481      8479      8482      8483      8481      8479      8482      8484
      8481      8479      8482      8485      8482      8485      8488      8489
      8482      8485      8488      8490      8482      8485      8488      8493
      8483      8482      8485      8486      8483      8482      8485      8487
      8483      8482      8485      8488      8484      8482      8485      8486
      8484      8482      8485      8487      8484      8482      8485      8488
      8485      8488      8490      8491      8485      8488      8490      8492
      8485      8488      8490      8493      8485      8488      8493      8490
      8485      8488      8493      8494      8485      8488      8493      8495
      8486      8485      8488      8489      8486      8485      8488      8490
      8486      8485      8488      8493      8487      8485      8488      8489
      8487      8485      8488      8490      8487      8485      8488      8493
      8488      8490      8493      8494      8488      8490      8493      8495
      8488      8493      8490      8491      8488      8493      8490      8492
      8488      8493      8495      8496      8488      8493      8495      8497
      8488      8493      8495      8498      8489      8488      8490      8491
      8489      8488      8490      8492      8489      8488      8490      8493
      8489      8488      8493      8490      8489      8488      8493      8494
      8489      8488      8493      8495      8490      8488      8493      8494
      8490      8488      8493      8495      8490      8493      8495      8496
      8490      8493      8495      8497      8490      8493      8495      8498
      8491      8490      8488      8493      8491      8490      8493      8494
      8491      8490      8493      8495      8492      8490      8488      8493
      8492      8490      8493      8494      8492      8490      8493      8495
      8493      8495      8498      8499      8493      8495      8498      8500
      8493      8495      8498      8501      8494      8493      8495      8496
      8494      8493      8495      8497      8494      8493      8495      8498
      8495      8498      8501      8502      8495      8498      8501      8503
      8495      8498      8501      8504      8496      8495      8498      8499
      8496      8495      8498      8500      8496      8495      8498      8501
      8497      8495      8498      8499      8497      8495      8498      8500
      8497      8495      8498      8501      8498      8501      8504      8505
      8498      8501      8504      8506      8498      8501      8504      8507
      8499      8498      8501      8502      8499      8498      8501      8503
      8499      8498      8501      8504      8500      8498      8501      8502
      8500      8498      8501      8503      8500      8498      8501      8504
      8501      8504      8507      8508      8501      8504      8507      8509
      8501      8504      8507      8510      8502      8501      8504      8505
      8502      8501      8504      8506      8502      8501      8504      8507
      8503      8501      8504      8505      8503      8501      8504      8506
      8503      8501      8504      8507      8504      8507      8510      8511
      8504      8507      8510      8512      8504      8507      8510      8513
      8505      8504      8507      8508      8505      8504      8507      8509
      8505      8504      8507      8510      8506      8504      8507      8508
      8506      8504      8507      8509      8506      8504      8507      8510
      8508      8507      8510      8511      8508      8507      8510      8512
      8508      8507      8510      8513      8509      8507      8510      8511
      8509      8507      8510      8512      8509      8507      8510      8513
      8514      8517      8520      8521      8514      8517      8520      8522
      8514      8517      8520      8523      8515      8514      8517      8518
      8515      8514      8517      8519      8515      8514      8517      8520
      8516      8514      8517      8518      8516      8514      8517      8519
      8516      8514      8517      8520      8517      8520      8523      8524
      8517      8520      8523      8525      8517      8520      8523      8526
      8518      8517      8520      8521      8518      8517      8520      8522
      8518      8517      8520      8523      8519      8517      8520      8521
      8519      8517      8520      8522      8519      8517      8520      8523
      8520      8523      8526      8527      8520      8523      8526      8528
      8520      8523      8526      8529      8521      8520      8523      8524
      8521      8520      8523      8525      8521      8520      8523      8526
      8522      8520      8523      8524      8522      8520      8523      8525
      8522      8520      8523      8526      8523      8526      8529      8530
      8523      8526      8529      8531      8523      8526      8529      8532
      8524      8523      8526      8527      8524      8523      8526      8528
      8524      8523      8526      8529      8525      8523      8526      8527
      8525      8523      8526      8528      8525      8523      8526      8529
      8526      8529      8532      8533      8526      8529      8532      8534
      8526      8529      8532      8535      8527      8526      8529      8530
      8527      8526      8529      8531      8527      8526      8529      8532
      8528      8526      8529      8530      8528      8526      8529      8531
      8528      8526      8529      8532      8529      8532      8535      8536
      8529      8532      8535      8537      8529      8532      8535      8538
      8530      8529      8532      8533      8530      8529      8532      8534
      8530      8529      8532      8535      8531      8529      8532      8533
      8531      8529      8532      8534      8531      8529      8532      8535
      8532      8535      8538      8539      8532      8535      8538      8540
      8532      8535      8538      8541      8533      8532      8535      8536
      8533      8532      8535      8537      8533      8532      8535      8538
      8534      8532      8535      8536      8534      8532      8535      8537
      8534      8532      8535      8538      8535      8538      8541      8542
      8535      8538      8541      8543      8535      8538      8541      8544
      8536      8535      8538      8539      8536      8535      8538      8540
      8536      8535      8538      8541      8537      8535      8538      8539
      8537      8535      8538      8540      8537      8535      8538      8541
      8538      8541      8544      8545      8538      8541      8544      8546
      8538      8541      8544      8547      8539      8538      8541      8542
      8539      8538      8541      8543      8539      8538      8541      8544
      8540      8538      8541      8542      8540      8538      8541      8543
      8540      8538      8541      8544      8541      8544      8547      8548
      8541      8544      8547      8549      8541      8544      8547      8550
      8542      8541      8544      8545      8542      8541      8544      8546
      8542      8541      8544      8547      8543      8541      8544      8545
      8543      8541      8544      8546      8543      8541      8544      8547
      8544      8547      8550      8551      8544      8547      8550      8552
      8544      8547      8550      8553      8545      8544      8547      8548
      8545      8544      8547      8549      8545      8544      8547      8550
      8546      8544      8547      8548      8546      8544      8547      8549
      8546      8544      8547      8550      8547      8550      8553      8554
      8547      8550      8553      8555      8547      8550      8553      8556
      8548      8547      8550      8551      8548      8547      8550      8552
      8548      8547      8550      8553      8549      8547      8550      8551
      8549      8547      8550      8552      8549      8547      8550      8553
      8551      8550      8553      8554      8551      8550      8553      8555
      8551      8550      8553      8556      8552      8550      8553      8554
      8552      8550      8553      8555      8552      8550      8553      8556
      8557      8561      8564      8565      8557      8561      8564      8566
      8557      8561      8564      8571      8558      8557      8561      8562
      8558      8557      8561      8563      8558      8557      8561      8564
      8559      8557      8561      8562      8559      8557      8561      8563
      8559      8557      8561      8564      8560      8557      8561      8562
      8560      8557      8561      8563      8560      8557      8561      8564
      8561      8564      8571      8567      8562      8561      8564      8565
      8562      8561      8564      8566      8562      8561      8564      8571
      8563      8561      8564      8565      8563      8561      8564      8566
      8563      8561      8564      8571      8564      8571      8567      8568
      8564      8571      8567      8569      8564      8571      8567      8570
      8565      8564      8571      8567      8566      8564      8571      8567
      8567      8570      8572      8573      8567      8570      8572      8574
      8567      8570      8572      8575      8568      8567      8570      8572
      8569      8567      8570      8572      8570      8572      8575      8576
      8570      8572      8575      8577      8570      8572      8575      8583
      8571      8567      8570      8572      8572      8575      8577      8578
      8572      8575      8583      8584      8572      8575      8583      8585
      8572      8575      8583      8586      8573      8572      8575      8576
      8573      8572      8575      8577      8573      8572      8575      8583
      8574      8572      8575      8576      8574      8572      8575      8577
      8574      8572      8575      8583      8575      8577      8578      8579
      8575      8577      8578      8580      8575      8583      8586      8587
      8576      8575      8577      8578      8576      8575      8583      8584
      8576      8575      8583      8585      8576      8575      8583      8586
      8577      8575      8583      8584      8577      8575      8583      8585
      8577      8575      8583      8586      8577      8578      8580      8581
      8577      8578      8580      8582      8577      8578      8580      8592
      8578      8577      8575      8583      8578      8580      8592      8593
      8578      8580      8592      8594      8578      8580      8592      8595
      8579      8578      8580      8581      8579      8578      8580      8582
      8579      8578      8580      8592      8580      8592      8595      8596
      8580      8592      8595      8597      8580      8592      8595      8598
      8581      8580      8592      8593      8581      8580      8592      8594
      8581      8580      8592      8595      8582      8580      8592      8593
      8582      8580      8592      8594      8582      8580      8592      8595
      8583      8586      8587      8588      8583      8586      8587      8589
      8584      8583      8586      8587      8585      8583      8586      8587
      8586      8587      8589      8590      8586      8587      8589      8591
      8586      8587      8589      8636      8587      8589      8636      8637
      8587      8589      8636      8638      8587      8589      8636      8639
      8588      8587      8589      8590      8588      8587      8589      8591
      8588      8587      8589      8636      8589      8636      8639      8640
      8589      8636      8639      8641      8589      8636      8639      8642
      8590      8589      8636      8637      8590      8589      8636      8638
      8590      8589      8636      8639      8591      8589      8636      8637
      8591      8589      8636      8638      8591      8589      8636      8639
      8592      8595      8598      8599      8592      8595      8598      8600
      8592      8595      8598      8601      8593      8592      8595      8596
      8593      8592      8595      8597      8593      8592      8595      8598
      8594      8592      8595      8596      8594      8592      8595      8597
      8594      8592      8595      8598      8595      8598      8601      8602
      8595      8598      8601      8603      8595      8598      8601      8604
      8596      8595      8598      8599      8596      8595      8598      8600
      8596      8595      8598      8601      8597      8595      8598      8599
      8597      8595      8598      8600      8597      8595      8598      8601
      8598      8601      8604      8605      8598      8601      8604      8606
      8598      8601      8604      8607      8599      8598      8601      8602
      8599      8598      8601      8603      8599      8598      8601      8604
      8600      8598      8601      8602      8600      8598      8601      8603
      8600      8598      8601      8604      8601      8604      8607      8608
      8601      8604      8607      8609      8601      8604      8607      8610
      8602      8601      8604      8605      8602      8601      8604      8606
      8602      8601      8604      8607      8603      8601      8604      8605
      8603      8601      8604      8606      8603      8601      8604      8607
      8604      8607      8610      8611      8604      8607      8610      8612
      8604      8607      8610      8615      8605      8604      8607      8608
      8605      8604      8607      8609      8605      8604      8607      8610
      8606      8604      8607      8608      8606      8604      8607      8609
      8606      8604      8607      8610      8607      8610      8612      8613
      8607      8610      8612      8614      8607      8610      8612      8615
      8607      8610      8615      8612      8607      8610      8615      8616
      8607      8610      8615      8617      8608      8607      8610      8611
      8608      8607      8610      8612      8608      8607      8610      8615
      8609      8607      8610      8611      8609      8607      8610      8612
      8609      8607      8610      8615      8610      8612      8615      8616
      8610      8612      8615      8617      8610      8615      8612      8613
      8610      8615      8612      8614      8610      8615      8617      8618
      8610      8615      8617      8619      8610      8615      8617      8620
      8611      8610      8612      8613      8611      8610      8612      8614
      8611      8610      8612      8615      8611      8610      8615      8612
      8611      8610      8615      8616      8611      8610      8615      8617
      8612      8610      8615      8616      8612      8610      8615      8617
      8612      8615      8617      8618      8612      8615      8617      8619
      8612      8615      8617      8620      8613      8612      8610      8615
      8613      8612      8615      8616      8613      8612      8615      8617
      8614      8612      8610      8615      8614      8612      8615      8616
      8614      8612      8615      8617      8615      8617      8620      8621
      8615      8617      8620      8622      8615      8617      8620      8623
      8616      8615      8617      8618      8616      8615      8617      8619
      8616      8615      8617      8620      8617      8620      8623      8624
      8617      8620      8623      8625      8617      8620      8623      8626
      8618      8617      8620      8621      8618      8617      8620      8622
      8618      8617      8620      8623      8619      8617      8620      8621
      8619      8617      8620      8622      8619      8617      8620      8623
      8620      8623      8626      8627      8620      8623      8626      8628
      8620      8623      8626      8629      8621      8620      8623      8624
      8621      8620      8623      8625      8621      8620      8623      8626
      8622      8620      8623      8624      8622      8620      8623      8625
      8622      8620      8623      8626      8623      8626      8629      8630
      8623      8626      8629      8631      8623      8626      8629      8632
      8624      8623      8626      8627      8624      8623      8626      8628
      8624      8623      8626      8629      8625      8623      8626      8627
      8625      8623      8626      8628      8625      8623      8626      8629
      8626      8629      8632      8633      8626      8629      8632      8634
      8626      8629      8632      8635      8627      8626      8629      8630
      8627      8626      8629      8631      8627      8626      8629      8632
      8628      8626      8629      8630      8628      8626      8629      8631
      8628      8626      8629      8632      8630      8629      8632      8633
      8630      8629      8632      8634      8630      8629      8632      8635
      8631      8629      8632      8633      8631      8629      8632      8634
      8631      8629      8632      8635      8636      8639      8642      8643
      8636      8639      8642      8644      8636      8639      8642      8645
      8637      8636      8639      8640      8637      8636      8639      8641
      8637      8636      8639      8642      8638      8636      8639      8640
      8638      8636      8639      8641      8638      8636      8639      8642
      8639      8642      8645      8646      8639      8642      8645      8647
      8639      8642      8645      8648      8640      8639      8642      8643
      8640      8639      8642      8644      8640      8639      8642      8645
      8641      8639      8642      8643      8641      8639      8642      8644
      8641      8639      8642      8645      8642      8645      8648      8649
      8642      8645      8648      8650      8642      8645      8648      8651
      8643      8642      8645      8646      8643      8642      8645      8647
      8643      8642      8645      8648      8644      8642      8645      8646
      8644      8642      8645      8647      8644      8642      8645      8648
      8645      8648      8651      8652      8645      8648      8651      8653
      8645      8648      8651      8654      8646      8645      8648      8649
      8646      8645      8648      8650      8646      8645      8648      8651
      8647      8645      8648      8649      8647      8645      8648      8650
      8647      8645      8648      8651      8648      8651      8654      8655
      8648      8651      8654      8656      8648      8651      8654      8657
      8649      8648      8651      8652      8649      8648      8651      8653
      8649      8648      8651      8654      8650      8648      8651      8652
      8650      8648      8651      8653      8650      8648      8651      8654
      8651      8654      8657      8658      8651      8654      8657      8659
      8651      8654      8657      8660      8652      8651      8654      8655
      8652      8651      8654      8656      8652      8651      8654      8657
      8653      8651      8654      8655      8653      8651      8654      8656
      8653      8651      8654      8657      8654      8657      8660      8661
      8654      8657      8660      8662      8654      8657      8660      8663
      8655      8654      8657      8658      8655      8654      8657      8659
      8655      8654      8657      8660      8656      8654      8657      8658
      8656      8654      8657      8659      8656      8654      8657      8660
      8657      8660      8663      8664      8657      8660      8663      8665
      8657      8660      8663      8666      8658      8657      8660      8661
      8658      8657      8660      8662      8658      8657      8660      8663
      8659      8657      8660      8661      8659      8657      8660      8662
      8659      8657      8660      8663      8660      8663      8666      8667
      8660      8663      8666      8668      8660      8663      8666      8669
      8661      8660      8663      8664      8661      8660      8663      8665
      8661      8660      8663      8666      8662      8660      8663      8664
      8662      8660      8663      8665      8662      8660      8663      8666
      8663      8666      8669      8670      8663      8666      8669      8671
      8663      8666      8669      8672      8664      8663      8666      8667
      8664      8663      8666      8668      8664      8663      8666      8669
      8665      8663      8666      8667      8665      8663      8666      8668
      8665      8663      8666      8669      8666      8669      8672      8673
      8666      8669      8672      8674      8666      8669      8672      8675
      8667      8666      8669      8670      8667      8666      8669      8671
      8667      8666      8669      8672      8668      8666      8669      8670
      8668      8666      8669      8671      8668      8666      8669      8672
      8669      8672      8675      8676      8669      8672      8675      8677
      8669      8672      8675      8678      8670      8669      8672      8673
      8670      8669      8672      8674      8670      8669      8672      8675
      8671      8669      8672      8673      8671      8669      8672      8674
      8671      8669      8672      8675      8673      8672      8675      8676
      8673      8672      8675      8677      8673      8672      8675      8678
      8674      8672      8675      8676      8674      8672      8675      8677
      8674      8672      8675      8678      8679      8683      8686      8687
      8679      8683      8686      8688      8679      8683      8686      8693
      8680      8679      8683      8684      8680      8679      8683      8685
      8680      8679      8683      8686      8681      8679      8683      8684
      8681      8679      8683      8685      8681      8679      8683      8686
      8682      8679      8683      8684      8682      8679      8683      8685
      8682      8679      8683      8686      8683      8686      8693      8689
      8684      8683      8686      8687      8684      8683      8686      8688
      8684      8683      8686      8693      8685      8683      8686      8687
      8685      8683      8686      8688      8685      8683      8686      8693
      8686      8693      8689      8690      8686      8693      8689      8691
      8686      8693      8689      8692      8687      8686      8693      8689
      8688      8686      8693      8689      8689      8692      8694      8695
      8689      8692      8694      8696      8689      8692      8694      8697
      8690      8689      8692      8694      8691      8689      8692      8694
      8692      8694      8697      8698      8692      8694      8697      8699
      8692      8694      8697      8705      8693      8689      8692      8694
      8694      8697      8699      8700      8694      8697      8705      8706
      8694      8697      8705      8707      8694      8697      8705      8708
      8695      8694      8697      8698      8695      8694      8697      8699
      8695      8694      8697      8705      8696      8694      8697      8698
      8696      8694      8697      8699      8696      8694      8697      8705
      8697      8699      8700      8701      8697      8699      8700      8702
      8697      8705      8708      8709      8698      8697      8699      8700
      8698      8697      8705      8706      8698      8697      8705      8707
      8698      8697      8705      8708      8699      8697      8705      8706
      8699      8697      8705      8707      8699      8697      8705      8708
      8699      8700      8702      8703      8699      8700      8702      8704
      8699      8700      8702      8714      8700      8699      8697      8705
      8700      8702      8714      8715      8700      8702      8714      8716
      8700      8702      8714      8717      8701      8700      8702      8703
      8701      8700      8702      8704      8701      8700      8702      8714
      8702      8714      8717      8718      8702      8714      8717      8719
      8702      8714      8717      8720      8703      8702      8714      8715
      8703      8702      8714      8716      8703      8702      8714      8717
      8704      8702      8714      8715      8704      8702      8714      8716
      8704      8702      8714      8717      8705      8708      8709      8710
      8705      8708      8709      8711      8706      8705      8708      8709
      8707      8705      8708      8709      8708      8709      8711      8712
      8708      8709      8711      8713      8708      8709      8711      8758
      8709      8711      8758      8759      8709      8711      8758      8760
      8709      8711      8758      8761      8710      8709      8711      8712
      8710      8709      8711      8713      8710      8709      8711      8758
      8711      8758      8761      8762      8711      8758      8761      8763
      8711      8758      8761      8764      8712      8711      8758      8759
      8712      8711      8758      8760      8712      8711      8758      8761
      8713      8711      8758      8759      8713      8711      8758      8760
      8713      8711      8758      8761      8714      8717      8720      8721
      8714      8717      8720      8722      8714      8717      8720      8723
      8715      8714      8717      8718      8715      8714      8717      8719
      8715      8714      8717      8720      8716      8714      8717      8718
      8716      8714      8717      8719      8716      8714      8717      8720
      8717      8720      8723      8724      8717      8720      8723      8725
      8717      8720      8723      8726      8718      8717      8720      8721
      8718      8717      8720      8722      8718      8717      8720      8723
      8719      8717      8720      8721      8719      8717      8720      8722
      8719      8717      8720      8723      8720      8723      8726      8727
      8720      8723      8726      8728      8720      8723      8726      8729
      8721      8720      8723      8724      8721      8720      8723      8725
      8721      8720      8723      8726      8722      8720      8723      8724
      8722      8720      8723      8725      8722      8720      8723      8726
      8723      8726      8729      8730      8723      8726      8729      8731
      8723      8726      8729      8732      8724      8723      8726      8727
      8724      8723      8726      8728      8724      8723      8726      8729
      8725      8723      8726      8727      8725      8723      8726      8728
      8725      8723      8726      8729      8726      8729      8732      8733
      8726      8729      8732      8734      8726      8729      8732      8737
      8727      8726      8729      8730      8727      8726      8729      8731
      8727      8726      8729      8732      8728      8726      8729      8730
      8728      8726      8729      8731      8728      8726      8729      8732
      8729      8732      8734      8735      8729      8732      8734      8736
      8729      8732      8734      8737      8729      8732      8737      8734
      8729      8732      8737      8738      8729      8732      8737      8739
      8730      8729      8732      8733      8730      8729      8732      8734
      8730      8729      8732      8737      8731      8729      8732      8733
      8731      8729      8732      8734      8731      8729      8732      8737
      8732      8734      8737      8738      8732      8734      8737      8739
      8732      8737      8734      8735      8732      8737      8734      8736
      8732      8737      8739      8740      8732      8737      8739      8741
      8732      8737      8739      8742      8733      8732      8734      8735
      8733      8732      8734      8736      8733      8732      8734      8737
      8733      8732      8737      8734      8733      8732      8737      8738
      8733      8732      8737      8739      8734      8732      8737      8738
      8734      8732      8737      8739      8734      8737      8739      8740
      8734      8737      8739      8741      8734      8737      8739      8742
      8735      8734      8732      8737      8735      8734      8737      8738
      8735      8734      8737      8739      8736      8734      8732      8737
      8736      8734      8737      8738      8736      8734      8737      8739
      8737      8739      8742      8743      8737      8739      8742      8744
      8737      8739      8742      8745      8738      8737      8739      8740
      8738      8737      8739      8741      8738      8737      8739      8742
      8739      8742      8745      8746      8739      8742      8745      8747
      8739      8742      8745      8748      8740      8739      8742      8743
      8740      8739      8742      8744      8740      8739      8742      8745
      8741      8739      8742      8743      8741      8739      8742      8744
      8741      8739      8742      8745      8742      8745      8748      8749
      8742      8745      8748      8750      8742      8745      8748      8751
      8743      8742      8745      8746      8743      8742      8745      8747
      8743      8742      8745      8748      8744      8742      8745      8746
      8744      8742      8745      8747      8744      8742      8745      8748
      8745      8748      8751      8752      8745      8748      8751      8753
      8745      8748      8751      8754      8746      8745      8748      8749
      8746      8745      8748      8750      8746      8745      8748      8751
      8747      8745      8748      8749      8747      8745      8748      8750
      8747      8745      8748      8751      8748      8751      8754      8755
      8748      8751      8754      8756      8748      8751      8754      8757
      8749      8748      8751      8752      8749      8748      8751      8753
      8749      8748      8751      8754      8750      8748      8751      8752
      8750      8748      8751      8753      8750      8748      8751      8754
      8752      8751      8754      8755      8752      8751      8754      8756
      8752      8751      8754      8757      8753      8751      8754      8755
      8753      8751      8754      8756      8753      8751      8754      8757
      8758      8761      8764      8765      8758      8761      8764      8766
      8758      8761      8764      8767      8759      8758      8761      8762
      8759      8758      8761      8763      8759      8758      8761      8764
      8760      8758      8761      8762      8760      8758      8761      8763
      8760      8758      8761      8764      8761      8764      8767      8768
      8761      8764      8767      8769      8761      8764      8767      8770
      8762      8761      8764      8765      8762      8761      8764      8766
      8762      8761      8764      8767      8763      8761      8764      8765
      8763      8761      8764      8766      8763      8761      8764      8767
      8764      8767      8770      8771      8764      8767      8770      8772
      8764      8767      8770      8773      8765      8764      8767      8768
      8765      8764      8767      8769      8765      8764      8767      8770
      8766      8764      8767      8768      8766      8764      8767      8769
      8766      8764      8767      8770      8767      8770      8773      8774
      8767      8770      8773      8775      8767      8770      8773      8776
      8768      8767      8770      8771      8768      8767      8770      8772
      8768      8767      8770      8773      8769      8767      8770      8771
      8769      8767      8770      8772      8769      8767      8770      8773
      8770      8773      8776      8777      8770      8773      8776      8778
      8770      8773      8776      8779      8771      8770      8773      8774
      8771      8770      8773      8775      8771      8770      8773      8776
      8772      8770      8773      8774      8772      8770      8773      8775
      8772      8770      8773      8776      8773      8776      8779      8780
      8773      8776      8779      8781      8773      8776      8779      8782
      8774      8773      8776      8777      8774      8773      8776      8778
      8774      8773      8776      8779      8775      8773      8776      8777
      8775      8773      8776      8778      8775      8773      8776      8779
      8776      8779      8782      8783      8776      8779      8782      8784
      8776      8779      8782      8785      8777      8776      8779      8780
      8777      8776      8779      8781      8777      8776      8779      8782
      8778      8776      8779      8780      8778      8776      8779      8781
      8778      8776      8779      8782      8779      8782      8785      8786
      8779      8782      8785      8787      8779      8782      8785      8788
      8780      8779      8782      8783      8780      8779      8782      8784
      8780      8779      8782      8785      8781      8779      8782      8783
      8781      8779      8782      8784      8781      8779      8782      8785
      8782      8785      8788      8789      8782      8785      8788      8790
      8782      8785      8788      8791      8783      8782      8785      8786
      8783      8782      8785      8787      8783      8782      8785      8788
      8784      8782      8785      8786      8784      8782      8785      8787
      8784      8782      8785      8788      8785      8788      8791      8792
      8785      8788      8791      8793      8785      8788      8791      8794
      8786      8785      8788      8789      8786      8785      8788      8790
      8786      8785      8788      8791      8787      8785      8788      8789
      8787      8785      8788      8790      8787      8785      8788      8791
      8788      8791      8794      8795      8788      8791      8794      8796
      8788      8791      8794      8797      8789      8788      8791      8792
      8789      8788      8791      8793      8789      8788      8791      8794
      8790      8788      8791      8792      8790      8788      8791      8793
      8790      8788      8791      8794      8791      8794      8797      8798
      8791      8794      8797      8799      8791      8794      8797      8800
      8792      8791      8794      8795      8792      8791      8794      8796
      8792      8791      8794      8797      8793      8791      8794      8795
      8793      8791      8794      8796      8793      8791      8794      8797
      8795      8794      8797      8798      8795      8794      8797      8799
      8795      8794      8797      8800      8796      8794      8797      8798
      8796      8794      8797      8799      8796      8794      8797      8800
      8801      8805      8808      8809      8801      8805      8808      8810
      8801      8805      8808      8815      8802      8801      8805      8806
      8802      8801      8805      8807      8802      8801      8805      8808
      8803      8801      8805      8806      8803      8801      8805      8807
      8803      8801      8805      8808      8804      8801      8805      8806
      8804      8801      8805      8807      8804      8801      8805      8808
      8805      8808      8815      8811      8806      8805      8808      8809
      8806      8805      8808      8810      8806      8805      8808      8815
      8807      8805      8808      8809      8807      8805      8808      8810
      8807      8805      8808      8815      8808      8815      8811      8812
      8808      8815      8811      8813      8808      8815      8811      8814
      8809      8808      8815      8811      8810      8808      8815      8811
      8811      8814      8816      8817      8811      8814      8816      8818
      8811      8814      8816      8819      8812      8811      8814      8816
      8813      8811      8814      8816      8814      8816      8819      8820
      8814      8816      8819      8821      8814      8816      8819      8827
      8815      8811      8814      8816      8816      8819      8821      8822
      8816      8819      8827      8828      8816      8819      8827      8829
      8816      8819      8827      8830      8817      8816      8819      8820
      8817      8816      8819      8821      8817      8816      8819      8827
      8818      8816      8819      8820      8818      8816      8819      8821
      8818      8816      8819      8827      8819      8821      8822      8823
      8819      8821      8822      8824      8819      8827      8830      8831
      8820      8819      8821      8822      8820      8819      8827      8828
      8820      8819      8827      8829      8820      8819      8827      8830
      8821      8819      8827      8828      8821      8819      8827      8829
      8821      8819      8827      8830      8821      8822      8824      8825
      8821      8822      8824      8826      8821      8822      8824      8836
      8822      8821      8819      8827      8822      8824      8836      8837
      8822      8824      8836      8838      8822      8824      8836      8839
      8823      8822      8824      8825      8823      8822      8824      8826
      8823      8822      8824      8836      8824      8836      8839      8840
      8824      8836      8839      8841      8824      8836      8839      8842
      8825      8824      8836      8837      8825      8824      8836      8838
      8825      8824      8836      8839      8826      8824      8836      8837
      8826      8824      8836      8838      8826      8824      8836      8839
      8827      8830      8831      8832      8827      8830      8831      8833
      8828      8827      8830      8831      8829      8827      8830      8831
      8830      8831      8833      8834      8830      8831      8833      8835
      8830      8831      8833      8880      8831      8833      8880      8881
      8831      8833      8880      8882      8831      8833      8880      8883
      8832      8831      8833      8834      8832      8831      8833      8835
      8832      8831      8833      8880      8833      8880      8883      8884
      8833      8880      8883      8885      8833      8880      8883      8886
      8834      8833      8880      8881      8834      8833      8880      8882
      8834      8833      8880      8883      8835      8833      8880      8881
      8835      8833      8880      8882      8835      8833      8880      8883
      8836      8839      8842      8843      8836      8839      8842      8844
      8836      8839      8842      8845      8837      8836      8839      8840
      8837      8836      8839      8841      8837      8836      8839      8842
      8838      8836      8839      8840      8838      8836      8839      8841
      8838      8836      8839      8842      8839      8842      8845      8846
      8839      8842      8845      8847      8839      8842      8845      8848
      8840      8839      8842      8843      8840      8839      8842      8844
      8840      8839      8842      8845      8841      8839      8842      8843
      8841      8839      8842      8844      8841      8839      8842      8845
      8842      8845      8848      8849      8842      8845      8848      8850
      8842      8845      8848      8851      8843      8842      8845      8846
      8843      8842      8845      8847      8843      8842      8845      8848
      8844      8842      8845      8846      8844      8842      8845      8847
      8844      8842      8845      8848      8845      8848      8851      8852
      8845      8848      8851      8853      8845      8848      8851      8854
      8846      8845      8848      8849      8846      8845      8848      8850
      8846      8845      8848      8851      8847      8845      8848      8849
      8847      8845      8848      8850      8847      8845      8848      8851
      8848      8851      8854      8855      8848      8851      8854      8856
      8848      8851      8854      8859      8849      8848      8851      8852
      8849      8848      8851      8853      8849      8848      8851      8854
      8850      8848      8851      8852      8850      8848      8851      8853
      8850      8848      8851      8854      8851      8854      8856      8857
      8851      8854      8856      8858      8851      8854      8856      8859
      8851      8854      8859      8856      8851      8854      8859      8860
      8851      8854      8859      8861      8852      8851      8854      8855
      8852      8851      8854      8856      8852      8851      8854      8859
      8853      8851      8854      8855      8853      8851      8854      8856
      8853      8851      8854      8859      8854      8856      8859      8860
      8854      8856      8859      8861      8854      8859      8856      8857
      8854      8859      8856      8858      8854      8859      8861      8862
      8854      8859      8861      8863      8854      8859      8861      8864
      8855      8854      8856      8857      8855      8854      8856      8858
      8855      8854      8856      8859      8855      8854      8859      8856
      8855      8854      8859      8860      8855      8854      8859      8861
      8856      8854      8859      8860      8856      8854      8859      8861
      8856      8859      8861      8862      8856      8859      8861      8863
      8856      8859      8861      8864      8857      8856      8854      8859
      8857      8856      8859      8860      8857      8856      8859      8861
      8858      8856      8854      8859      8858      8856      8859      8860
      8858      8856      8859      8861      8859      8861      8864      8865
      8859      8861      8864      8866      8859      8861      8864      8867
      8860      8859      8861      8862      8860      8859      8861      8863
      8860      8859      8861      8864      8861      8864      8867      8868
      8861      8864      8867      8869      8861      8864      8867      8870
      8862      8861      8864      8865      8862      8861      8864      8866
      8862      8861      8864      8867      8863      8861      8864      8865
      8863      8861      8864      8866      8863      8861      8864      8867
      8864      8867      8870      8871      8864      8867      8870      8872
      8864      8867      8870      8873      8865      8864      8867      8868
      8865      8864      8867      8869      8865      8864      8867      8870
      8866      8864      8867      8868      8866      8864      8867      8869
      8866      8864      8867      8870      8867      8870      8873      8874
      8867      8870      8873      8875      8867      8870      8873      8876
      8868      8867      8870      8871      8868      8867      8870      8872
      8868      8867      8870      8873      8869      8867      8870      8871
      8869      8867      8870      8872      8869      8867      8870      8873
      8870      8873      8876      8877      8870      8873      8876      8878
      8870      8873      8876      8879      8871      8870      8873      8874
      8871      8870      8873      8875      8871      8870      8873      8876
      8872      8870      8873      8874      8872      8870      8873      8875
      8872      8870      8873      8876      8874      8873      8876      8877
      8874      8873      8876      8878      8874      8873      8876      8879
      8875      8873      8876      8877      8875      8873      8876      8878
      8875      8873      8876      8879      8880      8883      8886      8887
      8880      8883      8886      8888      8880      8883      8886      8889
      8881      8880      8883      8884      8881      8880      8883      8885
      8881      8880      8883      8886      8882      8880      8883      8884
      8882      8880      8883      8885      8882      8880      8883      8886
      8883      8886      8889      8890      8883      8886      8889      8891
      8883      8886      8889      8892      8884      8883      8886      8887
      8884      8883      8886      8888      8884      8883      8886      8889
      8885      8883      8886      8887      8885      8883      8886      8888
      8885      8883      8886      8889      8886      8889      8892      8893
      8886      8889      8892      8894      8886      8889      8892      8895
      8887      8886      8889      8890      8887      8886      8889      8891
      8887      8886      8889      8892      8888      8886      8889      8890
      8888      8886      8889      8891      8888      8886      8889      8892
      8889      8892      8895      8896      8889      8892      8895      8897
      8889      8892      8895      8898      8890      8889      8892      8893
      8890      8889      8892      8894      8890      8889      8892      8895
      8891      8889      8892      8893      8891      8889      8892      8894
      8891      8889      8892      8895      8892      8895      8898      8899
      8892      8895      8898      8900      8892      8895      8898      8901
      8893      8892      8895      8896      8893      8892      8895      8897
      8893      8892      8895      8898      8894      8892      8895      8896
      8894      8892      8895      8897      8894      8892      8895      8898
      8895      8898      8901      8902      8895      8898      8901      8903
      8895      8898      8901      8904      8896      8895      8898      8899
      8896      8895      8898      8900      8896      8895      8898      8901
      8897      8895      8898      8899      8897      8895      8898      8900
      8897      8895      8898      8901      8898      8901      8904      8905
      8898      8901      8904      8906      8898      8901      8904      8907
      8899      8898      8901      8902      8899      8898      8901      8903
      8899      8898      8901      8904      8900      8898      8901      8902
      8900      8898      8901      8903      8900      8898      8901      8904
      8901      8904      8907      8908      8901      8904      8907      8909
      8901      8904      8907      8910      8902      8901      8904      8905
      8902      8901      8904      8906      8902      8901      8904      8907
      8903      8901      8904      8905      8903      8901      8904      8906
      8903      8901      8904      8907      8904      8907      8910      8911
      8904      8907      8910      8912      8904      8907      8910      8913
      8905      8904      8907      8908      8905      8904      8907      8909
      8905      8904      8907      8910      8906      8904      8907      8908
      8906      8904      8907      8909      8906      8904      8907      8910
      8907      8910      8913      8914      8907      8910      8913      8915
      8907      8910      8913      8916      8908      8907      8910      8911
      8908      8907      8910      8912      8908      8907      8910      8913
      8909      8907      8910      8911      8909      8907      8910      8912
      8909      8907      8910      8913      8910      8913      8916      8917
      8910      8913      8916      8918      8910      8913      8916      8919
      8911      8910      8913      8914      8911      8910      8913      8915
      8911      8910      8913      8916      8912      8910      8913      8914
      8912      8910      8913      8915      8912      8910      8913      8916
      8913      8916      8919      8920      8913      8916      8919      8921
      8913      8916      8919      8922      8914      8913      8916      8917
      8914      8913      8916      8918      8914      8913      8916      8919
      8915      8913      8916      8917      8915      8913      8916      8918
      8915      8913      8916      8919      8917      8916      8919      8920
      8917      8916      8919      8921      8917      8916      8919      8922
      8918      8916      8919      8920      8918      8916      8919      8921
      8918      8916      8919      8922      8923      8927      8930      8931
      8923      8927      8930      8932      8923      8927      8930      8937
      8924      8923      8927      8928      8924      8923      8927      8929
      8924      8923      8927      8930      8925      8923      8927      8928
      8925      8923      8927      8929      8925      8923      8927      8930
      8926      8923      8927      8928      8926      8923      8927      8929
      8926      8923      8927      8930      8927      8930      8937      8933
      8928      8927      8930      8931      8928      8927      8930      8932
      8928      8927      8930      8937      8929      8927      8930      8931
      8929      8927      8930      8932      8929      8927      8930      8937
      8930      8937      8933      8934      8930      8937      8933      8935
      8930      8937      8933      8936      8931      8930      8937      8933
      8932      8930      8937      8933      8933      8936      8938      8939
      8933      8936      8938      8940      8933      8936      8938      8941
      8934      8933      8936      8938      8935      8933      8936      8938
      8936      8938      8941      8942      8936      8938      8941      8943
      8936      8938      8941      8949      8937      8933      8936      8938
      8938      8941      8943      8944      8938      8941      8949      8950
      8938      8941      8949      8951      8938      8941      8949      8952
      8939      8938      8941      8942      8939      8938      8941      8943
      8939      8938      8941      8949      8940      8938      8941      8942
      8940      8938      8941      8943      8940      8938      8941      8949
      8941      8943      8944      8945      8941      8943      8944      8946
      8941      8949      8952      8953      8942      8941      8943      8944
      8942      8941      8949      8950      8942      8941      8949      8951
      8942      8941      8949      8952      8943      8941      8949      8950
      8943      8941      8949      8951      8943      8941      8949      8952
      8943      8944      8946      8947      8943      8944      8946      8948
      8943      8944      8946      8958      8944      8943      8941      8949
      8944      8946      8958      8959      8944      8946      8958      8960
      8944      8946      8958      8961      8945      8944      8946      8947
      8945      8944      8946      8948      8945      8944      8946      8958
      8946      8958      8961      8962      8946      8958      8961      8963
      8946      8958      8961      8964      8947      8946      8958      8959
      8947      8946      8958      8960      8947      8946      8958      8961
      8948      8946      8958      8959      8948      8946      8958      8960
      8948      8946      8958      8961      8949      8952      8953      8954
      8949      8952      8953      8955      8950      8949      8952      8953
      8951      8949      8952      8953      8952      8953      8955      8956
      8952      8953      8955      8957      8952      8953      8955      9002
      8953      8955      9002      9003      8953      8955      9002      9004
      8953      8955      9002      9005      8954      8953      8955      8956
      8954      8953      8955      8957      8954      8953      8955      9002
      8955      9002      9005      9006      8955      9002      9005      9007
      8955      9002      9005      9008      8956      8955      9002      9003
      8956      8955      9002      9004      8956      8955      9002      9005
      8957      8955      9002      9003      8957      8955      9002      9004
      8957      8955      9002      9005      8958      8961      8964      8965
      8958      8961      8964      8966      8958      8961      8964      8967
      8959      8958      8961      8962      8959      8958      8961      8963
      8959      8958      8961      8964      8960      8958      8961      8962
      8960      8958      8961      8963      8960      8958      8961      8964
      8961      8964      8967      8968      8961      8964      8967      8969
      8961      8964      8967      8970      8962      8961      8964      8965
      8962      8961      8964      8966      8962      8961      8964      8967
      8963      8961      8964      8965      8963      8961      8964      8966
      8963      8961      8964      8967      8964      8967      8970      8971
      8964      8967      8970      8972      8964      8967      8970      8973
      8965      8964      8967      8968      8965      8964      8967      8969
      8965      8964      8967      8970      8966      8964      8967      8968
      8966      8964      8967      8969      8966      8964      8967      8970
      8967      8970      8973      8974      8967      8970      8973      8975
      8967      8970      8973      8976      8968      8967      8970      8971
      8968      8967      8970      8972      8968      8967      8970      8973
      8969      8967      8970      8971      8969      8967      8970      8972
      8969      8967      8970      8973      8970      8973      8976      8977
      8970      8973      8976      8978      8970      8973      8976      8981
      8971      8970      8973      8974      8971      8970      8973      8975
      8971      8970      8973      8976      8972      8970      8973      8974
      8972      8970      8973      8975      8972      8970      8973      8976
      8973      8976      8978      8979      8973      8976      8978      8980
      8973      8976      8978      8981      8973      8976      8981      8978
      8973      8976      8981      8982      8973      8976      8981      8983
      8974      8973      8976      8977      8974      8973      8976      8978
      8974      8973      8976      8981      8975      8973      8976      8977
      8975      8973      8976      8978      8975      8973      8976      8981
      8976      8978      8981      8982      8976      8978      8981      8983
      8976      8981      8978      8979      8976      8981      8978      8980
      8976      8981      8983      8984      8976      8981      8983      8985
      8976      8981      8983      8986      8977      8976      8978      8979
      8977      8976      8978      8980      8977      8976      8978      8981
      8977      8976      8981      8978      8977      8976      8981      8982
      8977      8976      8981      8983      8978      8976      8981      8982
      8978      8976      8981      8983      8978      8981      8983      8984
      8978      8981      8983      8985      8978      8981      8983      8986
      8979      8978      8976      8981      8979      8978      8981      8982
      8979      8978      8981      8983      8980      8978      8976      8981
      8980      8978      8981      8982      8980      8978      8981      8983
      8981      8983      8986      8987      8981      8983      8986      8988
      8981      8983      8986      8989      8982      8981      8983      8984
      8982      8981      8983      8985      8982      8981      8983      8986
      8983      8986      8989      8990      8983      8986      8989      8991
      8983      8986      8989      8992      8984      8983      8986      8987
      8984      8983      8986      8988      8984      8983      8986      8989
      8985      8983      8986      8987      8985      8983      8986      8988
      8985      8983      8986      8989      8986      8989      8992      8993
      8986      8989      8992      8994      8986      8989      8992      8995
      8987      8986      8989      8990      8987      8986      8989      8991
      8987      8986      8989      8992      8988      8986      8989      8990
      8988      8986      8989      8991      8988      8986      8989      8992
      8989      8992      8995      8996      8989      8992      8995      8997
      8989      8992      8995      8998      8990      8989      8992      8993
      8990      8989      8992      8994      8990      8989      8992      8995
      8991      8989      8992      8993      8991      8989      8992      8994
      8991      8989      8992      8995      8992      8995      8998      8999
      8992      8995      8998      9000      8992      8995      8998      9001
      8993      8992      8995      8996      8993      8992      8995      8997
      8993      8992      8995      8998      8994      8992      8995      8996
      8994      8992      8995      8997      8994      8992      8995      8998
      8996      8995      8998      8999      8996      8995      8998      9000
      8996      8995      8998      9001      8997      8995      8998      8999
      8997      8995      8998      9000      8997      8995      8998      9001
      9002      9005      9008      9009      9002      9005      9008      9010
      9002      9005      9008      9011      9003      9002      9005      9006
      9003      9002      9005      9007      9003      9002      9005      9008
      9004      9002      9005      9006      9004      9002      9005      9007
      9004      9002      9005      9008      9005      9008      9011      9012
      9005      9008      9011      9013      9005      9008      9011      9014
      9006      9005      9008      9009      9006      9005      9008      9010
      9006      9005      9008      9011      9007      9005      9008      9009
      9007      9005      9008      9010      9007      9005      9008      9011
      9008      9011      9014      9015      9008      9011      9014      9016
      9008      9011      9014      9017      9009      9008      9011      9012
      9009      9008      9011      9013      9009      9008      9011      9014
      9010      9008      9011      9012      9010      9008      9011      9013
      9010      9008      9011      9014      9011      9014      9017      9018
      9011      9014      9017      9019      9011      9014      9017      9020
      9012      9011      9014      9015      9012      9011      9014      9016
      9012      9011      9014      9017      9013      9011      9014      9015
      9013      9011      9014      9016      9013      9011      9014      9017
      9014      9017      9020      9021      9014      9017      9020      9022
      9014      9017      9020      9023      9015      9014      9017      9018
      9015      9014      9017      9019      9015      9014      9017      9020
      9016      9014      9017      9018      9016      9014      9017      9019
      9016      9014      9017      9020      9017      9020      9023      9024
      9017      9020      9023      9025      9017      9020      9023      9026
      9018      9017      9020      9021      9018      9017      9020      9022
      9018      9017      9020      9023      9019      9017      9020      9021
      9019      9017      9020      9022      9019      9017      9020      9023
      9020      9023      9026      9027      9020      9023      9026      9028
      9020      9023      9026      9029      9021      9020      9023      9024
      9021      9020      9023      9025      9021      9020      9023      9026
      9022      9020      9023      9024      9022      9020      9023      9025
      9022      9020      9023      9026      9023      9026      9029      9030
      9023      9026      9029      9031      9023      9026      9029      9032
      9024      9023      9026      9027      9024      9023      9026      9028
      9024      9023      9026      9029      9025      9023      9026      9027
      9025      9023      9026      9028      9025      9023      9026      9029
      9026      9029      9032      9033      9026      9029      9032      9034
      9026      9029      9032      9035      9027      9026      9029      9030
      9027      9026      9029      9031      9027      9026      9029      9032
      9028      9026      9029      9030      9028      9026      9029      9031
      9028      9026      9029      9032      9029      9032      9035      9036
      9029      9032      9035      9037      9029      9032      9035      9038
      9030      9029      9032      9033      9030      9029      9032      9034
      9030      9029      9032      9035      9031      9029      9032      9033
      9031      9029      9032      9034      9031      9029      9032      9035
      9032      9035      9038      9039      9032      9035      9038      9040
      9032      9035      9038      9041      9033      9032      9035      9036
      9033      9032      9035      9037      9033      9032      9035      9038
      9034      9032      9035      9036      9034      9032      9035      9037
      9034      9032      9035      9038      9035      9038      9041      9042
      9035      9038      9041      9043      9035      9038      9041      9044
      9036      9035      9038      9039      9036      9035      9038      9040
      9036      9035      9038      9041      9037      9035      9038      9039
      9037      9035      9038      9040      9037      9035      9038      9041
      9039      9038      9041      9042      9039      9038      9041      9043
      9039      9038      9041      9044      9040      9038      9041      9042
      9040      9038      9041      9043      9040      9038      9041      9044
      9045      9050      9052      9053      9045      9050      9054      9055
      9045      9050      9054      9056      9045      9050      9054      9061
      9046      9045      9048      9049      9046      9045      9050      9051
      9046      9045      9050      9052      9046      9045      9050      9054
      9047      9045      9048      9049      9047      9045      9050      9051
      9047      9045      9050      9052      9047      9045      9050      9054
      9048      9045      9050      9051      9048      9045      9050      9052
      9048      9045      9050      9054      9049      9048      9045      9050
      9050      9054      9061      9057      9051      9050      9052      9053
      9051      9050      9054      9055      9051      9050      9054      9056
      9051      9050      9054      9061      9052      9050      9054      9055
      9052      9050      9054      9056      9052      9050      9054      9061
      9053      9052      9050      9054      9054      9061      9057      9058
      9054      9061      9057      9059      9054      9061      9057      9060
      9055      9054      9061      9057      9056      9054      9061      9057
      9057      9060      9062      9063      9057      9060      9062      9064
      9057      9060      9062      9065      9058      9057      9060      9062
      9059      9057      9060      9062      9060      9062      9065      9066
      9060      9062      9065      9067      9060      9062      9065      9073
      9061      9057      9060      9062      9062      9065      9067      9068
      9062      9065      9073      9074      9062      9065      9073      9075
      9062      9065      9073      9076      9063      9062      9065      9066
      9063      9062      9065      9067      9063      9062      9065      9073
      9064      9062      9065      9066      9064      9062      9065      9067
      9064      9062      9065      9073      9065      9067      9068      9069
      9065      9067      9068      9070      9065      9073      9076      9077
      9066      9065      9067      9068      9066      9065      9073      9074
      9066      9065      9073      9075      9066      9065      9073      9076
      9067      9065      9073      9074      9067      9065      9073      9075
      9067      9065      9073      9076      9067      9068      9070      9071
      9067      9068      9070      9072      9067      9068      9070      9082
      9068      9067      9065      9073      9068      9070      9082      9083
      9068      9070      9082      9084      9068      9070      9082      9085
      9069      9068      9070      9071      9069      9068      9070      9072
      9069      9068      9070      9082      9070      9082      9085      9086
      9070      9082      9085      9087      9070      9082      9085      9088
      9071      9070      9082      9083      9071      9070      9082      9084
      9071      9070      9082      9085      9072      9070      9082      9083
      9072      9070      9082      9084      9072      9070      9082      9085
      9073      9076      9077      9078      9073      9076      9077      9079
      9074      9073      9076      9077      9075      9073      9076      9077
      9076      9077      9079      9080      9076      9077      9079      9081
      9076      9077      9079      9123      9077      9079      9123      9124
      9077      9079      9123      9125      9077      9079      9123      9126
      9078      9077      9079      9080      9078      9077      9079      9081
      9078      9077      9079      9123      9079      9123      9126      9127
      9079      9123      9126      9128      9079      9123      9126      9129
      9080      9079      9123      9124      9080      9079      9123      9125
      9080      9079      9123      9126      9081      9079      9123      9124
      9081      9079      9123      9125      9081      9079      9123      9126
      9082      9085      9088      9089      9082      9085      9088      9090
      9082      9085      9088      9091      9083      9082      9085      9086
      9083      9082      9085      9087      9083      9082      9085      9088
      9084      9082      9085      9086      9084      9082      9085      9087
      9084      9082      9085      9088      9085      9088      9091      9092
      9085      9088      9091      9093      9085      9088      9091      9094
      9086      9085      9088      9089      9086      9085      9088      9090
      9086      9085      9088      9091      9087      9085      9088      9089
      9087      9085      9088      9090      9087      9085      9088      9091
      9088      9091      9094      9095      9088      9091      9094      9096
      9088      9091      9094      9097      9089      9088      9091      9092
      9089      9088      9091      9093      9089      9088      9091      9094
      9090      9088      9091      9092      9090      9088      9091      9093
      9090      9088      9091      9094      9091      9094      9097      9098
      9091      9094      9097      9099      9091      9094      9097      9100
      9092      9091      9094      9095      9092      9091      9094      9096
      9092      9091      9094      9097      9093      9091      9094      9095
      9093      9091      9094      9096      9093      9091      9094      9097
      9094      9097      9100      9101      9094      9097      9100      9102
      9095      9094      9097      9098      9095      9094      9097      9099
      9095      9094      9097      9100      9096      9094      9097      9098
      9096      9094      9097      9099      9096      9094      9097      9100
      9097      9100      9102      9103      9097      9100      9102      9104
      9098      9097      9100      9101      9098      9097      9100      9102
      9099      9097      9100      9101      9099      9097      9100      9102
      9100      9102      9104      9105      9100      9102      9104      9106
      9100      9102      9104      9107      9101      9100      9102      9103
      9101      9100      9102      9104      9102      9104      9107      9108
      9102      9104      9107      9109      9102      9104      9107      9110
      9103      9102      9104      9105      9103      9102      9104      9106
      9103      9102      9104      9107      9104      9107      9110      9111
      9104      9107      9110      9112      9104      9107      9110      9113
      9105      9104      9107      9108      9105      9104      9107      9109
      9105      9104      9107      9110      9106      9104      9107      9108
      9106      9104      9107      9109      9106      9104      9107      9110
      9107      9110      9113      9114      9107      9110      9113      9115
      9107      9110      9113      9116      9108      9107      9110      9111
      9108      9107      9110      9112      9108      9107      9110      9113
      9109      9107      9110      9111      9109      9107      9110      9112
      9109      9107      9110      9113      9110      9113      9116      9117
      9110      9113      9116      9118      9110      9113      9116      9119
      9111      9110      9113      9114      9111      9110      9113      9115
      9111      9110      9113      9116      9112      9110      9113      9114
      9112      9110      9113      9115      9112      9110      9113      9116
      9113      9116      9119      9120      9113      9116      9119      9121
      9113      9116      9119      9122      9114      9113      9116      9117
      9114      9113      9116      9118      9114      9113      9116      9119
      9115      9113      9116      9117      9115      9113      9116      9118
      9115      9113      9116      9119      9117      9116      9119      9120
      9117      9116      9119      9121      9117      9116      9119      9122
      9118      9116      9119      9120      9118      9116      9119      9121
      9118      9116      9119      9122      9123      9126      9129      9130
      9123      9126      9129      9131      9123      9126      9129      9132
      9124      9123      9126      9127      9124      9123      9126      9128
      9124      9123      9126      9129      9125      9123      9126      9127
      9125      9123      9126      9128      9125      9123      9126      9129
      9126      9129      9132      9133      9126      9129      9132      9134
      9126      9129      9132      9135      9127      9126      9129      9130
      9127      9126      9129      9131      9127      9126      9129      9132
      9128      9126      9129      9130      9128      9126      9129      9131
      9128      9126      9129      9132      9129      9132      9135      9136
      9129      9132      9135      9137      9129      9132      9135      9138
      9130      9129      9132      9133      9130      9129      9132      9134
      9130      9129      9132      9135      9131      9129      9132      9133
      9131      9129      9132      9134      9131      9129      9132      9135
      9132      9135      9138      9139      9132      9135      9138      9140
      9132      9135      9138      9141      9133      9132      9135      9136
      9133      9132      9135      9137      9133      9132      9135      9138
      9134      9132      9135      9136      9134      9132      9135      9137
      9134      9132      9135      9138      9135      9138      9141      9142
      9135      9138      9141      9143      9135      9138      9141      9144
      9136      9135      9138      9139      9136      9135      9138      9140
      9136      9135      9138      9141      9137      9135      9138      9139
      9137      9135      9138      9140      9137      9135      9138      9141
      9138      9141      9144      9145      9138      9141      9144      9146
      9138      9141      9144      9147      9139      9138      9141      9142
      9139      9138      9141      9143      9139      9138      9141      9144
      9140      9138      9141      9142      9140      9138      9141      9143
      9140      9138      9141      9144      9141      9144      9147      9148
      9141      9144      9147      9149      9141      9144      9147      9150
      9142      9141      9144      9145      9142      9141      9144      9146
      9142      9141      9144      9147      9143      9141      9144      9145
      9143      9141      9144      9146      9143      9141      9144      9147
      9144      9147      9150      9151      9144      9147      9150      9152
      9144      9147      9150      9153      9145      9144      9147      9148
      9145      9144      9147      9149      9145      9144      9147      9150
      9146      9144      9147      9148      9146      9144      9147      9149
      9146      9144      9147      9150      9147      9150      9153      9154
      9147      9150      9153      9155      9147      9150      9153      9156
      9148      9147      9150      9151      9148      9147      9150      9152
      9148      9147      9150      9153      9149      9147      9150      9151
      9149      9147      9150      9152      9149      9147      9150      9153
      9150      9153      9156      9157      9150      9153      9156      9158
      9150      9153      9156      9159      9151      9150      9153      9154
      9151      9150      9153      9155      9151      9150      9153      9156
      9152      9150      9153      9154      9152      9150      9153      9155
      9152      9150      9153      9156      9153      9156      9159      9160
      9153      9156      9159      9161      9153      9156      9159      9162
      9154      9153      9156      9157      9154      9153      9156      9158
      9154      9153      9156      9159      9155      9153      9156      9157
      9155      9153      9156      9158      9155      9153      9156      9159
      9156      9159      9162      9163      9156      9159      9162      9164
      9156      9159      9162      9165      9157      9156      9159      9160
      9157      9156      9159      9161      9157      9156      9159      9162
      9158      9156      9159      9160      9158      9156      9159      9161
      9158      9156      9159      9162      9160      9159      9162      9163
      9160      9159      9162      9164      9160      9159      9162      9165
      9161      9159      9162      9163      9161      9159      9162      9164
      9161      9159      9162      9165      9166      9170      9173      9174
      9166      9170      9173      9175      9166      9170      9173      9180
      9167      9166      9170      9171      9167      9166      9170      9172
      9167      9166      9170      9173      9168      9166      9170      9171
      9168      9166      9170      9172      9168      9166      9170      9173
      9169      9166      9170      9171      9169      9166      9170      9172
      9169      9166      9170      9173      9170      9173      9180      9176
      9171      9170      9173      9174      9171      9170      9173      9175
      9171      9170      9173      9180      9172      9170      9173      9174
      9172      9170      9173      9175      9172      9170      9173      9180
      9173      9180      9176      9177      9173      9180      9176      9178
      9173      9180      9176      9179      9174      9173      9180      9176
      9175      9173      9180      9176      9176      9179      9181      9182
      9176      9179      9181      9183      9176      9179      9181      9184
      9177      9176      9179      9181      9178      9176      9179      9181
      9179      9181      9184      9185      9179      9181      9184      9186
      9179      9181      9184      9192      9180      9176      9179      9181
      9181      9184      9186      9187      9181      9184      9192      9193
      9181      9184      9192      9194      9181      9184      9192      9195
      9182      9181      9184      9185      9182      9181      9184      9186
      9182      9181      9184      9192      9183      9181      9184      9185
      9183      9181      9184      9186      9183      9181      9184      9192
      9184      9186      9187      9188      9184      9186      9187      9189
      9184      9192      9195      9196      9185      9184      9186      9187
      9185      9184      9192      9193      9185      9184      9192      9194
      9185      9184      9192      9195      9186      9184      9192      9193
      9186      9184      9192      9194      9186      9184      9192      9195
      9186      9187      9189      9190      9186      9187      9189      9191
      9186      9187      9189      9201      9187      9186      9184      9192
      9187      9189      9201      9202      9187      9189      9201      9203
      9187      9189      9201      9204      9188      9187      9189      9190
      9188      9187      9189      9191      9188      9187      9189      9201
      9189      9201      9204      9205      9189      9201      9204      9206
      9189      9201      9204      9207      9190      9189      9201      9202
      9190      9189      9201      9203      9190      9189      9201      9204
      9191      9189      9201      9202      9191      9189      9201      9203
      9191      9189      9201      9204      9192      9195      9196      9197
      9192      9195      9196      9198      9193      9192      9195      9196
      9194      9192      9195      9196      9195      9196      9198      9199
      9195      9196      9198      9200      9195      9196      9198      9248
      9196      9198      9248      9249      9196      9198      9248      9250
      9196      9198      9248      9251      9197      9196      9198      9199
      9197      9196      9198      9200      9197      9196      9198      9248
      9198      9248      9251      9252      9198      9248      9251      9253
      9198      9248      9251      9254      9199      9198      9248      9249
      9199      9198      9248      9250      9199      9198      9248      9251
      9200      9198      9248      9249      9200      9198      9248      9250
      9200      9198      9248      9251      9201      9204      9207      9208
      9201      9204      9207      9209      9201      9204      9207      9210
      9202      9201      9204      9205      9202      9201      9204      9206
      9202      9201      9204      9207      9203      9201      9204      9205
      9203      9201      9204      9206      9203      9201      9204      9207
      9204      9207      9210      9211      9204      9207      9210      9212
      9204      9207      9210      9213      9205      9204      9207      9208
      9205      9204      9207      9209      9205      9204      9207      9210
      9206      9204      9207      9208      9206      9204      9207      9209
      9206      9204      9207      9210      9207      9210      9213      9214
      9207      9210      9213      9215      9207      9210      9213      9216
      9208      9207      9210      9211      9208      9207      9210      9212
      9208      9207      9210      9213      9209      9207      9210      9211
      9209      9207      9210      9212      9209      9207      9210      9213
      9210      9213      9216      9217      9210      9213      9216      9218
      9210      9213      9216      9219      9211      9210      9213      9214
      9211      9210      9213      9215      9211      9210      9213      9216
      9212      9210      9213      9214      9212      9210      9213      9215
      9212      9210      9213      9216      9213      9216      9219      9220
      9213      9216      9219      9221      9214      9213      9216      9217
      9214      9213      9216      9218      9214      9213      9216      9219
      9215      9213      9216      9217      9215      9213      9216      9218
      9215      9213      9216      9219      9216      9219      9221      9222
      9216      9219      9221      9223      9217      9216      9219      9220
      9217      9216      9219      9221      9218      9216      9219      9220
      9218      9216      9219      9221      9219      9221      9223      9224
      9219      9221      9223      9225      9219      9221      9223      9226
      9220      9219      9221      9222      9220      9219      9221      9223
      9221      9223      9226      9227      9221      9223      9226      9228
      9221      9223      9226      9229      9222      9221      9223      9224
      9222      9221      9223      9225      9222      9221      9223      9226
      9223      9226      9229      9230      9223      9226      9229      9231
      9223      9226      9229      9232      9224      9223      9226      9227
      9224      9223      9226      9228      9224      9223      9226      9229
      9225      9223      9226      9227      9225      9223      9226      9228
      9225      9223      9226      9229      9226      9229      9232      9233
      9226      9229      9232      9234      9226      9229      9232      9235
      9227      9226      9229      9230      9227      9226      9229      9231
      9227      9226      9229      9232      9228      9226      9229      9230
      9228      9226      9229      9231      9228      9226      9229      9232
      9229      9232      9235      9236      9229      9232      9235      9237
      9229      9232      9235      9238      9230      9229      9232      9233
      9230      9229      9232      9234      9230      9229      9232      9235
      9231      9229      9232      9233      9231      9229      9232      9234
      9231      9229      9232      9235      9232      9235      9238      9239
      9232      9235      9238      9240      9232      9235      9238      9241
      9233      9232      9235      9236      9233      9232      9235      9237
      9233      9232      9235      9238      9234      9232      9235      9236
      9234      9232      9235      9237      9234      9232      9235      9238
      9235      9238      9241      9242      9235      9238      9241      9243
      9235      9238      9241      9244      9236      9235      9238      9239
      9236      9235      9238      9240      9236      9235      9238      9241
      9237      9235      9238      9239      9237      9235      9238      9240
      9237      9235      9238      9241      9238      9241      9244      9245
      9238      9241      9244      9246      9238      9241      9244      9247
      9239      9238      9241      9242      9239      9238      9241      9243
      9239      9238      9241      9244      9240      9238      9241      9242
      9240      9238      9241      9243      9240      9238      9241      9244
      9242      9241      9244      9245      9242      9241      9244      9246
      9242      9241      9244      9247      9243      9241      9244      9245
      9243      9241      9244      9246      9243      9241      9244      9247
      9248      9251      9254      9255      9248      9251      9254      9256
      9248      9251      9254      9257      9249      9248      9251      9252
      9249      9248      9251      9253      9249      9248      9251      9254
      9250      9248      9251      9252      9250      9248      9251      9253
      9250      9248      9251      9254      9251      9254      9257      9258
      9251      9254      9257      9259      9251      9254      9257      9260
      9252      9251      9254      9255      9252      9251      9254      9256
      9252      9251      9254      9257      9253      9251      9254      9255
      9253      9251      9254      9256      9253      9251      9254      9257
      9254      9257      9260      9261      9254      9257      9260      9262
      9254      9257      9260      9263      9255      9254      9257      9258
      9255      9254      9257      9259      9255      9254      9257      9260
      9256      9254      9257      9258      9256      9254      9257      9259
      9256      9254      9257      9260      9257      9260      9263      9264
      9257      9260      9263      9265      9257      9260      9263      9266
      9258      9257      9260      9261      9258      9257      9260      9262
      9258      9257      9260      9263      9259      9257      9260      9261
      9259      9257      9260      9262      9259      9257      9260      9263
      9260      9263      9266      9267      9260      9263      9266      9268
      9260      9263      9266      9269      9261      9260      9263      9264
      9261      9260      9263      9265      9261      9260      9263      9266
      9262      9260      9263      9264      9262      9260      9263      9265
      9262      9260      9263      9266      9263      9266      9269      9270
      9263      9266      9269      9271      9263      9266      9269      9272
      9264      9263      9266      9267      9264      9263      9266      9268
      9264      9263      9266      9269      9265      9263      9266      9267
      9265      9263      9266      9268      9265      9263      9266      9269
      9266      9269      9272      9273      9266      9269      9272      9274
      9266      9269      9272      9275      9267      9266      9269      9270
      9267      9266      9269      9271      9267      9266      9269      9272
      9268      9266      9269      9270      9268      9266      9269      9271
      9268      9266      9269      9272      9269      9272      9275      9276
      9269      9272      9275      9277      9269      9272      9275      9278
      9270      9269      9272      9273      9270      9269      9272      9274
      9270      9269      9272      9275      9271      9269      9272      9273
      9271      9269      9272      9274      9271      9269      9272      9275
      9272      9275      9278      9279      9272      9275      9278      9280
      9272      9275      9278      9281      9273      9272      9275      9276
      9273      9272      9275      9277      9273      9272      9275      9278
      9274      9272      9275      9276      9274      9272      9275      9277
      9274      9272      9275      9278      9275      9278      9281      9282
      9275      9278      9281      9283      9275      9278      9281      9284
      9276      9275      9278      9279      9276      9275      9278      9280
      9276      9275      9278      9281      9277      9275      9278      9279
      9277      9275      9278      9280      9277      9275      9278      9281
      9278      9281      9284      9285      9278      9281      9284      9286
      9278      9281      9284      9287      9279      9278      9281      9282
      9279      9278      9281      9283      9279      9278      9281      9284
      9280      9278      9281      9282      9280      9278      9281      9283
      9280      9278      9281      9284      9281      9284      9287      9288
      9281      9284      9287      9289      9281      9284      9287      9290
      9282      9281      9284      9285      9282      9281      9284      9286
      9282      9281      9284      9287      9283      9281      9284      9285
      9283      9281      9284      9286      9283      9281      9284      9287
      9285      9284      9287      9288      9285      9284      9287      9289
      9285      9284      9287      9290      9286      9284      9287      9288
      9286      9284      9287      9289      9286      9284      9287      9290
      9291      9295      9298      9299      9291      9295      9298      9300
      9291      9295      9298      9305      9292      9291      9295      9296
      9292      9291      9295      9297      9292      9291      9295      9298
      9293      9291      9295      9296      9293      9291      9295      9297
      9293      9291      9295      9298      9294      9291      9295      9296
      9294      9291      9295      9297      9294      9291      9295      9298
      9295      9298      9305      9301      9296      9295      9298      9299
      9296      9295      9298      9300      9296      9295      9298      9305
      9297      9295      9298      9299      9297      9295      9298      9300
      9297      9295      9298      9305      9298      9305      9301      9302
      9298      9305      9301      9303      9298      9305      9301      9304
      9299      9298      9305      9301      9300      9298      9305      9301
      9301      9304      9306      9307      9301      9304      9306      9308
      9301      9304      9306      9309      9302      9301      9304      9306
      9303      9301      9304      9306      9304      9306      9309      9310
      9304      9306      9309      9311      9304      9306      9309      9317
      9305      9301      9304      9306      9306      9309      9311      9312
      9306      9309      9317      9318      9306      9309      9317      9319
      9306      9309      9317      9320      9307      9306      9309      9310
      9307      9306      9309      9311      9307      9306      9309      9317
      9308      9306      9309      9310      9308      9306      9309      9311
      9308      9306      9309      9317      9309      9311      9312      9313
      9309      9311      9312      9314      9309      9317      9320      9321
      9310      9309      9311      9312      9310      9309      9317      9318
      9310      9309      9317      9319      9310      9309      9317      9320
      9311      9309      9317      9318      9311      9309      9317      9319
      9311      9309      9317      9320      9311      9312      9314      9315
      9311      9312      9314      9316      9311      9312      9314      9326
      9312      9311      9309      9317      9312      9314      9326      9327
      9312      9314      9326      9328      9312      9314      9326      9329
      9313      9312      9314      9315      9313      9312      9314      9316
      9313      9312      9314      9326      9314      9326      9329      9330
      9314      9326      9329      9331      9314      9326      9329      9332
      9315      9314      9326      9327      9315      9314      9326      9328
      9315      9314      9326      9329      9316      9314      9326      9327
      9316      9314      9326      9328      9316      9314      9326      9329
      9317      9320      9321      9322      9317      9320      9321      9323
      9318      9317      9320      9321      9319      9317      9320      9321
      9320      9321      9323      9324      9320      9321      9323      9325
      9320      9321      9323      9370      9321      9323      9370      9371
      9321      9323      9370      9372      9321      9323      9370      9373
      9322      9321      9323      9324      9322      9321      9323      9325
      9322      9321      9323      9370      9323      9370      9373      9374
      9323      9370      9373      9375      9323      9370      9373      9376
      9324      9323      9370      9371      9324      9323      9370      9372
      9324      9323      9370      9373      9325      9323      9370      9371
      9325      9323      9370      9372      9325      9323      9370      9373
      9326      9329      9332      9333      9326      9329      9332      9334
      9326      9329      9332      9335      9327      9326      9329      9330
      9327      9326      9329      9331      9327      9326      9329      9332
      9328      9326      9329      9330      9328      9326      9329      9331
      9328      9326      9329      9332      9329      9332      9335      9336
      9329      9332      9335      9337      9329      9332      9335      9338
      9330      9329      9332      9333      9330      9329      9332      9334
      9330      9329      9332      9335      9331      9329      9332      9333
      9331      9329      9332      9334      9331      9329      9332      9335
      9332      9335      9338      9339      9332      9335      9338      9340
      9332      9335      9338      9341      9333      9332      9335      9336
      9333      9332      9335      9337      9333      9332      9335      9338
      9334      9332      9335      9336      9334      9332      9335      9337
      9334      9332      9335      9338      9335      9338      9341      9342
      9335      9338      9341      9343      9335      9338      9341      9344
      9336      9335      9338      9339      9336      9335      9338      9340
      9336      9335      9338      9341      9337      9335      9338      9339
      9337      9335      9338      9340      9337      9335      9338      9341
      9338      9341      9344      9345      9338      9341      9344      9346
      9338      9341      9344      9349      9339      9338      9341      9342
      9339      9338      9341      9343      9339      9338      9341      9344
      9340      9338      9341      9342      9340      9338      9341      9343
      9340      9338      9341      9344      9341      9344      9346      9347
      9341      9344      9346      9348      9341      9344      9346      9349
      9341      9344      9349      9346      9341      9344      9349      9350
      9341      9344      9349      9351      9342      9341      9344      9345
      9342      9341      9344      9346      9342      9341      9344      9349
      9343      9341      9344      9345      9343      9341      9344      9346
      9343      9341      9344      9349      9344      9346      9349      9350
      9344      9346      9349      9351      9344      9349      9346      9347
      9344      9349      9346      9348      9344      9349      9351      9352
      9344      9349      9351      9353      9344      9349      9351      9354
      9345      9344      9346      9347      9345      9344      9346      9348
      9345      9344      9346      9349      9345      9344      9349      9346
      9345      9344      9349      9350      9345      9344      9349      9351
      9346      9344      9349      9350      9346      9344      9349      9351
      9346      9349      9351      9352      9346      9349      9351      9353
      9346      9349      9351      9354      9347      9346      9344      9349
      9347      9346      9349      9350      9347      9346      9349      9351
      9348      9346      9344      9349      9348      9346      9349      9350
      9348      9346      9349      9351      9349      9351      9354      9355
      9349      9351      9354      9356      9349      9351      9354      9357
      9350      9349      9351      9352      9350      9349      9351      9353
      9350      9349      9351      9354      9351      9354      9357      9358
      9351      9354      9357      9359      9351      9354      9357      9360
      9352      9351      9354      9355      9352      9351      9354      9356
      9352      9351      9354      9357      9353      9351      9354      9355
      9353      9351      9354      9356      9353      9351      9354      9357
      9354      9357      9360      9361      9354      9357      9360      9362
      9354      9357      9360      9363      9355      9354      9357      9358
      9355      9354      9357      9359      9355      9354      9357      9360
      9356      9354      9357      9358      9356      9354      9357      9359
      9356      9354      9357      9360      9357      9360      9363      9364
      9357      9360      9363      9365      9357      9360      9363      9366
      9358      9357      9360      9361      9358      9357      9360      9362
      9358      9357      9360      9363      9359      9357      9360      9361
      9359      9357      9360      9362      9359      9357      9360      9363
      9360      9363      9366      9367      9360      9363      9366      9368
      9360      9363      9366      9369      9361      9360      9363      9364
      9361      9360      9363      9365      9361      9360      9363      9366
      9362      9360      9363      9364      9362      9360      9363      9365
      9362      9360      9363      9366      9364      9363      9366      9367
      9364      9363      9366      9368      9364      9363      9366      9369
      9365      9363      9366      9367      9365      9363      9366      9368
      9365      9363      9366      9369      9370      9373      9376      9377
      9370      9373      9376      9378      9370      9373      9376      9379
      9371      9370      9373      9374      9371      9370      9373      9375
      9371      9370      9373      9376      9372      9370      9373      9374
      9372      9370      9373      9375      9372      9370      9373      9376
      9373      9376      9379      9380      9373      9376      9379      9381
      9373      9376      9379      9382      9374      9373      9376      9377
      9374      9373      9376      9378      9374      9373      9376      9379
      9375      9373      9376      9377      9375      9373      9376      9378
      9375      9373      9376      9379      9376      9379      9382      9383
      9376      9379      9382      9384      9376      9379      9382      9385
      9377      9376      9379      9380      9377      9376      9379      9381
      9377      9376      9379      9382      9378      9376      9379      9380
      9378      9376      9379      9381      9378      9376      9379      9382
      9379      9382      9385      9386      9379      9382      9385      9387
      9379      9382      9385      9388      9380      9379      9382      9383
      9380      9379      9382      9384      9380      9379      9382      9385
      9381      9379      9382      9383      9381      9379      9382      9384
      9381      9379      9382      9385      9382      9385      9388      9389
      9382      9385      9388      9390      9382      9385      9388      9391
      9383      9382      9385      9386      9383      9382      9385      9387
      9383      9382      9385      9388      9384      9382      9385      9386
      9384      9382      9385      9387      9384      9382      9385      9388
      9385      9388      9391      9392      9385      9388      9391      9393
      9385      9388      9391      9394      9386      9385      9388      9389
      9386      9385      9388      9390      9386      9385      9388      9391
      9387      9385      9388      9389      9387      9385      9388      9390
      9387      9385      9388      9391      9388      9391      9394      9395
      9388      9391      9394      9396      9388      9391      9394      9397
      9389      9388      9391      9392      9389      9388      9391      9393
      9389      9388      9391      9394      9390      9388      9391      9392
      9390      9388      9391      9393      9390      9388      9391      9394
      9391      9394      9397      9398      9391      9394      9397      9399
      9391      9394      9397      9400      9392      9391      9394      9395
      9392      9391      9394      9396      9392      9391      9394      9397
      9393      9391      9394      9395      9393      9391      9394      9396
      9393      9391      9394      9397      9394      9397      9400      9401
      9394      9397      9400      9402      9394      9397      9400      9403
      9395      9394      9397      9398      9395      9394      9397      9399
      9395      9394      9397      9400      9396      9394      9397      9398
      9396      9394      9397      9399      9396      9394      9397      9400
      9397      9400      9403      9404      9397      9400      9403      9405
      9397      9400      9403      9406      9398      9397      9400      9401
      9398      9397      9400      9402      9398      9397      9400      9403
      9399      9397      9400      9401      9399      9397      9400      9402
      9399      9397      9400      9403      9400      9403      9406      9407
      9400      9403      9406      9408      9400      9403      9406      9409
      9401      9400      9403      9404      9401      9400      9403      9405
      9401      9400      9403      9406      9402      9400      9403      9404
      9402      9400      9403      9405      9402      9400      9403      9406
      9404      9403      9406      9407      9404      9403      9406      9408
      9404      9403      9406      9409      9405      9403      9406      9407
      9405      9403      9406      9408      9405      9403      9406      9409
      9410      9414      9417      9418      9410      9414      9417      9419
      9410      9414      9417      9424      9411      9410      9414      9415
      9411      9410      9414      9416      9411      9410      9414      9417
      9412      9410      9414      9415      9412      9410      9414      9416
      9412      9410      9414      9417      9413      9410      9414      9415
      9413      9410      9414      9416      9413      9410      9414      9417
      9414      9417      9424      9420      9415      9414      9417      9418
      9415      9414      9417      9419      9415      9414      9417      9424
      9416      9414      9417      9418      9416      9414      9417      9419
      9416      9414      9417      9424      9417      9424      9420      9421
      9417      9424      9420      9422      9417      9424      9420      9423
      9418      9417      9424      9420      9419      9417      9424      9420
      9420      9423      9425      9426      9420      9423      9425      9427
      9420      9423      9425      9428      9421      9420      9423      9425
      9422      9420      9423      9425      9423      9425      9428      9429
      9423      9425      9428      9430      9423      9425      9428      9436
      9424      9420      9423      9425      9425      9428      9430      9431
      9425      9428      9436      9437      9425      9428      9436      9438
      9425      9428      9436      9439      9426      9425      9428      9429
      9426      9425      9428      9430      9426      9425      9428      9436
      9427      9425      9428      9429      9427      9425      9428      9430
      9427      9425      9428      9436      9428      9430      9431      9432
      9428      9430      9431      9433      9428      9436      9439      9440
      9429      9428      9430      9431      9429      9428      9436      9437
      9429      9428      9436      9438      9429      9428      9436      9439
      9430      9428      9436      9437      9430      9428      9436      9438
      9430      9428      9436      9439      9430      9431      9433      9434
      9430      9431      9433      9435      9430      9431      9433      9445
      9431      9430      9428      9436      9431      9433      9445      9446
      9431      9433      9445      9447      9431      9433      9445      9448
      9432      9431      9433      9434      9432      9431      9433      9435
      9432      9431      9433      9445      9433      9445      9448      9449
      9433      9445      9448      9450      9433      9445      9448      9451
      9434      9433      9445      9446      9434      9433      9445      9447
      9434      9433      9445      9448      9435      9433      9445      9446
      9435      9433      9445      9447      9435      9433      9445      9448
      9436      9439      9440      9441      9436      9439      9440      9442
      9437      9436      9439      9440      9438      9436      9439      9440
      9439      9440      9442      9443      9439      9440      9442      9444
      9439      9440      9442      9489      9440      9442      9489      9490
      9440      9442      9489      9491      9440      9442      9489      9492
      9441      9440      9442      9443      9441      9440      9442      9444
      9441      9440      9442      9489      9442      9489      9492      9493
      9442      9489      9492      9494      9442      9489      9492      9495
      9443      9442      9489      9490      9443      9442      9489      9491
      9443      9442      9489      9492      9444      9442      9489      9490
      9444      9442      9489      9491      9444      9442      9489      9492
      9445      9448      9451      9452      9445      9448      9451      9453
      9445      9448      9451      9454      9446      9445      9448      9449
      9446      9445      9448      9450      9446      9445      9448      9451
      9447      9445      9448      9449      9447      9445      9448      9450
      9447      9445      9448      9451      9448      9451      9454      9455
      9448      9451      9454      9456      9448      9451      9454      9457
      9449      9448      9451      9452      9449      9448      9451      9453
      9449      9448      9451      9454      9450      9448      9451      9452
      9450      9448      9451      9453      9450      9448      9451      9454
      9451      9454      9457      9458      9451      9454      9457      9459
      9451      9454      9457      9460      9452      9451      9454      9455
      9452      9451      9454      9456      9452      9451      9454      9457
      9453      9451      9454      9455      9453      9451      9454      9456
      9453      9451      9454      9457      9454      9457      9460      9461
      9454      9457      9460      9462      9454      9457      9460      9463
      9455      9454      9457      9458      9455      9454      9457      9459
      9455      9454      9457      9460      9456      9454      9457      9458
      9456      9454      9457      9459      9456      9454      9457      9460
      9457      9460      9463      9464      9457      9460      9463      9465
      9457      9460      9463      9468      9458      9457      9460      9461
      9458      9457      9460      9462      9458      9457      9460      9463
      9459      9457      9460      9461      9459      9457      9460      9462
      9459      9457      9460      9463      9460      9463      9465      9466
      9460      9463      9465      9467      9460      9463      9465      9468
      9460      9463      9468      9465      9460      9463      9468      9469
      9460      9463      9468      9470      9461      9460      9463      9464
      9461      9460      9463      9465      9461      9460      9463      9468
      9462      9460      9463      9464      9462      9460      9463      9465
      9462      9460      9463      9468      9463      9465      9468      9469
      9463      9465      9468      9470      9463      9468      9465      9466
      9463      9468      9465      9467      9463      9468      9470      9471
      9463      9468      9470      9472      9463      9468      9470      9473
      9464      9463      9465      9466      9464      9463      9465      9467
      9464      9463      9465      9468      9464      9463      9468      9465
      9464      9463      9468      9469      9464      9463      9468      9470
      9465      9463      9468      9469      9465      9463      9468      9470
      9465      9468      9470      9471      9465      9468      9470      9472
      9465      9468      9470      9473      9466      9465      9463      9468
      9466      9465      9468      9469      9466      9465      9468      9470
      9467      9465      9463      9468      9467      9465      9468      9469
      9467      9465      9468      9470      9468      9470      9473      9474
      9468      9470      9473      9475      9468      9470      9473      9476
      9469      9468      9470      9471      9469      9468      9470      9472
      9469      9468      9470      9473      9470      9473      9476      9477
      9470      9473      9476      9478      9470      9473      9476      9479
      9471      9470      9473      9474      9471      9470      9473      9475
      9471      9470      9473      9476      9472      9470      9473      9474
      9472      9470      9473      9475      9472      9470      9473      9476
      9473      9476      9479      9480      9473      9476      9479      9481
      9473      9476      9479      9482      9474      9473      9476      9477
      9474      9473      9476      9478      9474      9473      9476      9479
      9475      9473      9476      9477      9475      9473      9476      9478
      9475      9473      9476      9479      9476      9479      9482      9483
      9476      9479      9482      9484      9476      9479      9482      9485
      9477      9476      9479      9480      9477      9476      9479      9481
      9477      9476      9479      9482      9478      9476      9479      9480
      9478      9476      9479      9481      9478      9476      9479      9482
      9479      9482      9485      9486      9479      9482      9485      9487
      9479      9482      9485      9488      9480      9479      9482      9483
      9480      9479      9482      9484      9480      9479      9482      9485
      9481      9479      9482      9483      9481      9479      9482      9484
      9481      9479      9482      9485      9483      9482      9485      9486
      9483      9482      9485      9487      9483      9482      9485      9488
      9484      9482      9485      9486      9484      9482      9485      9487
      9484      9482      9485      9488      9489      9492      9495      9496
      9489      9492      9495      9497      9489      9492      9495      9498
      9490      9489      9492      9493      9490      9489      9492      9494
      9490      9489      9492      9495      9491      9489      9492      9493
      9491      9489      9492      9494      9491      9489      9492      9495
      9492      9495      9498      9499      9492      9495      9498      9500
      9492      9495      9498      9501      9493      9492      9495      9496
      9493      9492      9495      9497      9493      9492      9495      9498
      9494      9492      9495      9496      9494      9492      9495      9497
      9494      9492      9495      9498      9495      9498      9501      9502
      9495      9498      9501      9503      9495      9498      9501      9504
      9496      9495      9498      9499      9496      9495      9498      9500
      9496      9495      9498      9501      9497      9495      9498      9499
      9497      9495      9498      9500      9497      9495      9498      9501
      9498      9501      9504      9505      9498      9501      9504      9506
      9498      9501      9504      9507      9499      9498      9501      9502
      9499      9498      9501      9503      9499      9498      9501      9504
      9500      9498      9501      9502      9500      9498      9501      9503
      9500      9498      9501      9504      9501      9504      9507      9508
      9501      9504      9507      9509      9501      9504      9507      9510
      9502      9501      9504      9505      9502      9501      9504      9506
      9502      9501      9504      9507      9503      9501      9504      9505
      9503      9501      9504      9506      9503      9501      9504      9507
      9504      9507      9510      9511      9504      9507      9510      9512
      9504      9507      9510      9513      9505      9504      9507      9508
      9505      9504      9507      9509      9505      9504      9507      9510
      9506      9504      9507      9508      9506      9504      9507      9509
      9506      9504      9507      9510      9507      9510      9513      9514
      9507      9510      9513      9515      9507      9510      9513      9516
      9508      9507      9510      9511      9508      9507      9510      9512
      9508      9507      9510      9513      9509      9507      9510      9511
      9509      9507      9510      9512      9509      9507      9510      9513
      9510      9513      9516      9517      9510      9513      9516      9518
      9510      9513      9516      9519      9511      9510      9513      9514
      9511      9510      9513      9515      9511      9510      9513      9516
      9512      9510      9513      9514      9512      9510      9513      9515
      9512      9510      9513      9516      9513      9516      9519      9520
      9513      9516      9519      9521      9513      9516      9519      9522
      9514      9513      9516      9517      9514      9513      9516      9518
      9514      9513      9516      9519      9515      9513      9516      9517
      9515      9513      9516      9518      9515      9513      9516      9519
      9516      9519      9522      9523      9516      9519      9522      9524
      9516      9519      9522      9525      9517      9516      9519      9520
      9517      9516      9519      9521      9517      9516      9519      9522
      9518      9516      9519      9520      9518      9516      9519      9521
      9518      9516      9519      9522      9519      9522      9525      9526
      9519      9522      9525      9527      9519      9522      9525      9528
      9520      9519      9522      9523      9520      9519      9522      9524
      9520      9519      9522      9525      9521      9519      9522      9523
      9521      9519      9522      9524      9521      9519      9522      9525
      9522      9525      9528      9529      9522      9525      9528      9530
      9522      9525      9528      9531      9523      9522      9525      9526
      9523      9522      9525      9527      9523      9522      9525      9528
      9524      9522      9525      9526      9524      9522      9525      9527
      9524      9522      9525      9528      9526      9525      9528      9529
      9526      9525      9528      9530      9526      9525      9528      9531
      9527      9525      9528      9529      9527      9525      9528      9530
      9527      9525      9528      9531      9532      9536      9539      9540
      9532      9536      9539      9541      9532      9536      9539      9546
      9533      9532      9536      9537      9533      9532      9536      9538
      9533      9532      9536      9539      9534      9532      9536      9537
      9534      9532      9536      9538      9534      9532      9536      9539
      9535      9532      9536      9537      9535      9532      9536      9538
      9535      9532      9536      9539      9536      9539      9546      9542
      9537      9536      9539      9540      9537      9536      9539      9541
      9537      9536      9539      9546      9538      9536      9539      9540
      9538      9536      9539      9541      9538      9536      9539      9546
      9539      9546      9542      9543      9539      9546      9542      9544
      9539      9546      9542      9545      9540      9539      9546      9542
      9541      9539      9546      9542      9542      9545      9547      9548
      9542      9545      9547      9549      9542      9545      9547      9550
      9543      9542      9545      9547      9544      9542      9545      9547
      9545      9547      9550      9551      9545      9547      9550      9552
      9545      9547      9550      9558      9546      9542      9545      9547
      9547      9550      9552      9553      9547      9550      9558      9559
      9547      9550      9558      9560      9547      9550      9558      9561
      9548      9547      9550      9551      9548      9547      9550      9552
      9548      9547      9550      9558      9549      9547      9550      9551
      9549      9547      9550      9552      9549      9547      9550      9558
      9550      9552      9553      9554      9550      9552      9553      9555
      9550      9558      9561      9562      9551      9550      9552      9553
      9551      9550      9558      9559      9551      9550      9558      9560
      9551      9550      9558      9561      9552      9550      9558      9559
      9552      9550      9558      9560      9552      9550      9558      9561
      9552      9553      9555      9556      9552      9553      9555      9557
      9552      9553      9555      9567      9553      9552      9550      9558
      9553      9555      9567      9568      9553      9555      9567      9569
      9553      9555      9567      9570      9554      9553      9555      9556
      9554      9553      9555      9557      9554      9553      9555      9567
      9555      9567      9570      9571      9555      9567      9570      9572
      9555      9567      9570      9573      9556      9555      9567      9568
      9556      9555      9567      9569      9556      9555      9567      9570
      9557      9555      9567      9568      9557      9555      9567      9569
      9557      9555      9567      9570      9558      9561      9562      9563
      9558      9561      9562      9564      9559      9558      9561      9562
      9560      9558      9561      9562      9561      9562      9564      9565
      9561      9562      9564      9566      9561      9562      9564      9614
      9562      9564      9614      9615      9562      9564      9614      9616
      9562      9564      9614      9617      9563      9562      9564      9565
      9563      9562      9564      9566      9563      9562      9564      9614
      9564      9614      9617      9618      9564      9614      9617      9619
      9564      9614      9617      9620      9565      9564      9614      9615
      9565      9564      9614      9616      9565      9564      9614      9617
      9566      9564      9614      9615      9566      9564      9614      9616
      9566      9564      9614      9617      9567      9570      9573      9574
      9567      9570      9573      9575      9567      9570      9573      9576
      9568      9567      9570      9571      9568      9567      9570      9572
      9568      9567      9570      9573      9569      9567      9570      9571
      9569      9567      9570      9572      9569      9567      9570      9573
      9570      9573      9576      9577      9570      9573      9576      9578
      9570      9573      9576      9579      9571      9570      9573      9574
      9571      9570      9573      9575      9571      9570      9573      9576
      9572      9570      9573      9574      9572      9570      9573      9575
      9572      9570      9573      9576      9573      9576      9579      9580
      9573      9576      9579      9581      9573      9576      9579      9582
      9574      9573      9576      9577      9574      9573      9576      9578
      9574      9573      9576      9579      9575      9573      9576      9577
      9575      9573      9576      9578      9575      9573      9576      9579
      9576      9579      9582      9583      9576      9579      9582      9584
      9576      9579      9582      9585      9577      9576      9579      9580
      9577      9576      9579      9581      9577      9576      9579      9582
      9578      9576      9579      9580      9578      9576      9579      9581
      9578      9576      9579      9582      9579      9582      9585      9586
      9579      9582      9585      9587      9580      9579      9582      9583
      9580      9579      9582      9584      9580      9579      9582      9585
      9581      9579      9582      9583      9581      9579      9582      9584
      9581      9579      9582      9585      9582      9585      9587      9588
      9582      9585      9587      9589      9583      9582      9585      9586
      9583      9582      9585      9587      9584      9582      9585      9586
      9584      9582      9585      9587      9585      9587      9589      9590
      9585      9587      9589      9591      9585      9587      9589      9592
      9586      9585      9587      9588      9586      9585      9587      9589
      9587      9589      9592      9593      9587      9589      9592      9594
      9587      9589      9592      9595      9588      9587      9589      9590
      9588      9587      9589      9591      9588      9587      9589      9592
      9589      9592      9595      9596      9589      9592      9595      9597
      9589      9592      9595      9598      9590      9589      9592      9593
      9590      9589      9592      9594      9590      9589      9592      9595
      9591      9589      9592      9593      9591      9589      9592      9594
      9591      9589      9592      9595      9592      9595      9598      9599
      9592      9595      9598      9600      9592      9595      9598      9601
      9593      9592      9595      9596      9593      9592      9595      9597
      9593      9592      9595      9598      9594      9592      9595      9596
      9594      9592      9595      9597      9594      9592      9595      9598
      9595      9598      9601      9602      9595      9598      9601      9603
      9595      9598      9601      9604      9596      9595      9598      9599
      9596      9595      9598      9600      9596      9595      9598      9601
      9597      9595      9598      9599      9597      9595      9598      9600
      9597      9595      9598      9601      9598      9601      9604      9605
      9598      9601      9604      9606      9598      9601      9604      9607
      9599      9598      9601      9602      9599      9598      9601      9603
      9599      9598      9601      9604      9600      9598      9601      9602
      9600      9598      9601      9603      9600      9598      9601      9604
      9601      9604      9607      9608      9601      9604      9607      9609
      9601      9604      9607      9610      9602      9601      9604      9605
      9602      9601      9604      9606      9602      9601      9604      9607
      9603      9601      9604      9605      9603      9601      9604      9606
      9603      9601      9604      9607      9604      9607      9610      9611
      9604      9607      9610      9612      9604      9607      9610      9613
      9605      9604      9607      9608      9605      9604      9607      9609
      9605      9604      9607      9610      9606      9604      9607      9608
      9606      9604      9607      9609      9606      9604      9607      9610
      9608      9607      9610      9611      9608      9607      9610      9612
      9608      9607      9610      9613      9609      9607      9610      9611
      9609      9607      9610      9612      9609      9607      9610      9613
      9614      9617      9620      9621      9614      9617      9620      9622
      9614      9617      9620      9623      9615      9614      9617      9618
      9615      9614      9617      9619      9615      9614      9617      9620
      9616      9614      9617      9618      9616      9614      9617      9619
      9616      9614      9617      9620      9617      9620      9623      9624
      9617      9620      9623      9625      9617      9620      9623      9626
      9618      9617      9620      9621      9618      9617      9620      9622
      9618      9617      9620      9623      9619      9617      9620      9621
      9619      9617      9620      9622      9619      9617      9620      9623
      9620      9623      9626      9627      9620      9623      9626      9628
      9620      9623      9626      9629      9621      9620      9623      9624
      9621      9620      9623      9625      9621      9620      9623      9626
      9622      9620      9623      9624      9622      9620      9623      9625
      9622      9620      9623      9626      9623      9626      9629      9630
      9623      9626      9629      9631      9623      9626      9629      9632
      9624      9623      9626      9627      9624      9623      9626      9628
      9624      9623      9626      9629      9625      9623      9626      9627
      9625      9623      9626      9628      9625      9623      9626      9629
      9626      9629      9632      9633      9626      9629      9632      9634
      9626      9629      9632      9635      9627      9626      9629      9630
      9627      9626      9629      9631      9627      9626      9629      9632
      9628      9626      9629      9630      9628      9626      9629      9631
      9628      9626      9629      9632      9629      9632      9635      9636
      9629      9632      9635      9637      9629      9632      9635      9638
      9630      9629      9632      9633      9630      9629      9632      9634
      9630      9629      9632      9635      9631      9629      9632      9633
      9631      9629      9632      9634      9631      9629      9632      9635
      9632      9635      9638      9639      9632      9635      9638      9640
      9632      9635      9638      9641      9633      9632      9635      9636
      9633      9632      9635      9637      9633      9632      9635      9638
      9634      9632      9635      9636      9634      9632      9635      9637
      9634      9632      9635      9638      9635      9638      9641      9642
      9635      9638      9641      9643      9635      9638      9641      9644
      9636      9635      9638      9639      9636      9635      9638      9640
      9636      9635      9638      9641      9637      9635      9638      9639
      9637      9635      9638      9640      9637      9635      9638      9641
      9638      9641      9644      9645      9638      9641      9644      9646
      9638      9641      9644      9647      9639      9638      9641      9642
      9639      9638      9641      9643      9639      9638      9641      9644
      9640      9638      9641      9642      9640      9638      9641      9643
      9640      9638      9641      9644      9641      9644      9647      9648
      9641      9644      9647      9649      9641      9644      9647      9650
      9642      9641      9644      9645      9642      9641      9644      9646
      9642      9641      9644      9647      9643      9641      9644      9645
      9643      9641      9644      9646      9643      9641      9644      9647
      9644      9647      9650      9651      9644      9647      9650      9652
      9644      9647      9650      9653      9645      9644      9647      9648
      9645      9644      9647      9649      9645      9644      9647      9650
      9646      9644      9647      9648      9646      9644      9647      9649
      9646      9644      9647      9650      9647      9650      9653      9654
      9647      9650      9653      9655      9647      9650      9653      9656
      9648      9647      9650      9651      9648      9647      9650      9652
      9648      9647      9650      9653      9649      9647      9650      9651
      9649      9647      9650      9652      9649      9647      9650      9653
      9651      9650      9653      9654      9651      9650      9653      9655
      9651      9650      9653      9656      9652      9650      9653      9654
      9652      9650      9653      9655      9652      9650      9653      9656
      9657      9661      9664      9665      9657      9661      9664      9666
      9657      9661      9664      9671      9658      9657      9661      9662
      9658      9657      9661      9663      9658      9657      9661      9664
      9659      9657      9661      9662      9659      9657      9661      9663
      9659      9657      9661      9664      9660      9657      9661      9662
      9660      9657      9661      9663      9660      9657      9661      9664
      9661      9664      9671      9667      9662      9661      9664      9665
      9662      9661      9664      9666      9662      9661      9664      9671
      9663      9661      9664      9665      9663      9661      9664      9666
      9663      9661      9664      9671      9664      9671      9667      9668
      9664      9671      9667      9669      9664      9671      9667      9670
      9665      9664      9671      9667      9666      9664      9671      9667
      9667      9670      9672      9673      9667      9670      9672      9674
      9667      9670      9672      9675      9668      9667      9670      9672
      9669      9667      9670      9672      9670      9672      9675      9676
      9670      9672      9675      9677      9670      9672      9675      9683
      9671      9667      9670      9672      9672      9675      9677      9678
      9672      9675      9683      9684      9672      9675      9683      9685
      9672      9675      9683      9686      9673      9672      9675      9676
      9673      9672      9675      9677      9673      9672      9675      9683
      9674      9672      9675      9676      9674      9672      9675      9677
      9674      9672      9675      9683      9675      9677      9678      9679
      9675      9677      9678      9680      9675      9683      9686      9687
      9676      9675      9677      9678      9676      9675      9683      9684
      9676      9675      9683      9685      9676      9675      9683      9686
      9677      9675      9683      9684      9677      9675      9683      9685
      9677      9675      9683      9686      9677      9678      9680      9681
      9677      9678      9680      9682      9677      9678      9680      9692
      9678      9677      9675      9683      9678      9680      9692      9693
      9678      9680      9692      9694      9678      9680      9692      9695
      9679      9678      9680      9681      9679      9678      9680      9682
      9679      9678      9680      9692      9680      9692      9695      9696
      9680      9692      9695      9697      9680      9692      9695      9698
      9681      9680      9692      9693      9681      9680      9692      9694
      9681      9680      9692      9695      9682      9680      9692      9693
      9682      9680      9692      9694      9682      9680      9692      9695
      9683      9686      9687      9688      9683      9686      9687      9689
      9684      9683      9686      9687      9685      9683      9686      9687
      9686      9687      9689      9690      9686      9687      9689      9691
      9686      9687      9689      9736      9687      9689      9736      9737
      9687      9689      9736      9738      9687      9689      9736      9739
      9688      9687      9689      9690      9688      9687      9689      9691
      9688      9687      9689      9736      9689      9736      9739      9740
      9689      9736      9739      9741      9689      9736      9739      9742
      9690      9689      9736      9737      9690      9689      9736      9738
      9690      9689      9736      9739      9691      9689      9736      9737
      9691      9689      9736      9738      9691      9689      9736      9739
      9692      9695      9698      9699      9692      9695      9698      9700
      9692      9695      9698      9701      9693      9692      9695      9696
      9693      9692      9695      9697      9693      9692      9695      9698
      9694      9692      9695      9696      9694      9692      9695      9697
      9694      9692      9695      9698      9695      9698      9701      9702
      9695      9698      9701      9703      9695      9698      9701      9704
      9696      9695      9698      9699      9696      9695      9698      9700
      9696      9695      9698      9701      9697      9695      9698      9699
      9697      9695      9698      9700      9697      9695      9698      9701
      9698      9701      9704      9705      9698      9701      9704      9706
      9698      9701      9704      9707      9699      9698      9701      9702
      9699      9698      9701      9703      9699      9698      9701      9704
      9700      9698      9701      9702      9700      9698      9701      9703
      9700      9698      9701      9704      9701      9704      9707      9708
      9701      9704      9707      9709      9701      9704      9707      9710
      9702      9701      9704      9705      9702      9701      9704      9706
      9702      9701      9704      9707      9703      9701      9704      9705
      9703      9701      9704      9706      9703      9701      9704      9707
      9704      9707      9710      9711      9704      9707      9710      9712
      9704      9707      9710      9715      9705      9704      9707      9708
      9705      9704      9707      9709      9705      9704      9707      9710
      9706      9704      9707      9708      9706      9704      9707      9709
      9706      9704      9707      9710      9707      9710      9712      9713
      9707      9710      9712      9714      9707      9710      9712      9715
      9707      9710      9715      9712      9707      9710      9715      9716
      9707      9710      9715      9717      9708      9707      9710      9711
      9708      9707      9710      9712      9708      9707      9710      9715
      9709      9707      9710      9711      9709      9707      9710      9712
      9709      9707      9710      9715      9710      9712      9715      9716
      9710      9712      9715      9717      9710      9715      9712      9713
      9710      9715      9712      9714      9710      9715      9717      9718
      9710      9715      9717      9719      9710      9715      9717      9720
      9711      9710      9712      9713      9711      9710      9712      9714
      9711      9710      9712      9715      9711      9710      9715      9712
      9711      9710      9715      9716      9711      9710      9715      9717
      9712      9710      9715      9716      9712      9710      9715      9717
      9712      9715      9717      9718      9712      9715      9717      9719
      9712      9715      9717      9720      9713      9712      9710      9715
      9713      9712      9715      9716      9713      9712      9715      9717
      9714      9712      9710      9715      9714      9712      9715      9716
      9714      9712      9715      9717      9715      9717      9720      9721
      9715      9717      9720      9722      9715      9717      9720      9723
      9716      9715      9717      9718      9716      9715      9717      9719
      9716      9715      9717      9720      9717      9720      9723      9724
      9717      9720      9723      9725      9717      9720      9723      9726
      9718      9717      9720      9721      9718      9717      9720      9722
      9718      9717      9720      9723      9719      9717      9720      9721
      9719      9717      9720      9722      9719      9717      9720      9723
      9720      9723      9726      9727      9720      9723      9726      9728
      9720      9723      9726      9729      9721      9720      9723      9724
      9721      9720      9723      9725      9721      9720      9723      9726
      9722      9720      9723      9724      9722      9720      9723      9725
      9722      9720      9723      9726      9723      9726      9729      9730
      9723      9726      9729      9731      9723      9726      9729      9732
      9724      9723      9726      9727      9724      9723      9726      9728
      9724      9723      9726      9729      9725      9723      9726      9727
      9725      9723      9726      9728      9725      9723      9726      9729
      9726      9729      9732      9733      9726      9729      9732      9734
      9726      9729      9732      9735      9727      9726      9729      9730
      9727      9726      9729      9731      9727      9726      9729      9732
      9728      9726      9729      9730      9728      9726      9729      9731
      9728      9726      9729      9732      9730      9729      9732      9733
      9730      9729      9732      9734      9730      9729      9732      9735
      9731      9729      9732      9733      9731      9729      9732      9734
      9731      9729      9732      9735      9736      9739      9742      9743
      9736      9739      9742      9744      9736      9739      9742      9745
      9737      9736      9739      9740      9737      9736      9739      9741
      9737      9736      9739      9742      9738      9736      9739      9740
      9738      9736      9739      9741      9738      9736      9739      9742
      9739      9742      9745      9746      9739      9742      9745      9747
      9739      9742      9745      9748      9740      9739      9742      9743
      9740      9739      9742      9744      9740      9739      9742      9745
      9741      9739      9742      9743      9741      9739      9742      9744
      9741      9739      9742      9745      9742      9745      9748      9749
      9742      9745      9748      9750      9742      9745      9748      9751
      9743      9742      9745      9746      9743      9742      9745      9747
      9743      9742      9745      9748      9744      9742      9745      9746
      9744      9742      9745      9747      9744      9742      9745      9748
      9745      9748      9751      9752      9745      9748      9751      9753
      9745      9748      9751      9754      9746      9745      9748      9749
      9746      9745      9748      9750      9746      9745      9748      9751
      9747      9745      9748      9749      9747      9745      9748      9750
      9747      9745      9748      9751      9748      9751      9754      9755
      9748      9751      9754      9756      9748      9751      9754      9757
      9749      9748      9751      9752      9749      9748      9751      9753
      9749      9748      9751      9754      9750      9748      9751      9752
      9750      9748      9751      9753      9750      9748      9751      9754
      9751      9754      9757      9758      9751      9754      9757      9759
      9751      9754      9757      9760      9752      9751      9754      9755
      9752      9751      9754      9756      9752      9751      9754      9757
      9753      9751      9754      9755      9753      9751      9754      9756
      9753      9751      9754      9757      9754      9757      9760      9761
      9754      9757      9760      9762      9754      9757      9760      9763
      9755      9754      9757      9758      9755      9754      9757      9759
      9755      9754      9757      9760      9756      9754      9757      9758
      9756      9754      9757      9759      9756      9754      9757      9760
      9757      9760      9763      9764      9757      9760      9763      9765
      9757      9760      9763      9766      9758      9757      9760      9761
      9758      9757      9760      9762      9758      9757      9760      9763
      9759      9757      9760      9761      9759      9757      9760      9762
      9759      9757      9760      9763      9760      9763      9766      9767
      9760      9763      9766      9768      9760      9763      9766      9769
      9761      9760      9763      9764      9761      9760      9763      9765
      9761      9760      9763      9766      9762      9760      9763      9764
      9762      9760      9763      9765      9762      9760      9763      9766
      9763      9766      9769      9770      9763      9766      9769      9771
      9763      9766      9769      9772      9764      9763      9766      9767
      9764      9763      9766      9768      9764      9763      9766      9769
      9765      9763      9766      9767      9765      9763      9766      9768
      9765      9763      9766      9769      9766      9769      9772      9773
      9766      9769      9772      9774      9766      9769      9772      9775
      9767      9766      9769      9770      9767      9766      9769      9771
      9767      9766      9769      9772      9768      9766      9769      9770
      9768      9766      9769      9771      9768      9766      9769      9772
      9770      9769      9772      9773      9770      9769      9772      9774
      9770      9769      9772      9775      9771      9769      9772      9773
      9771      9769      9772      9774      9771      9769      9772      9775
      9776      9780      9783      9784      9776      9780      9783      9785
      9776      9780      9783      9790      9777      9776      9780      9781
      9777      9776      9780      9782      9777      9776      9780      9783
      9778      9776      9780      9781      9778      9776      9780      9782
      9778      9776      9780      9783      9779      9776      9780      9781
      9779      9776      9780      9782      9779      9776      9780      9783
      9780      9783      9790      9786      9781      9780      9783      9784
      9781      9780      9783      9785      9781      9780      9783      9790
      9782      9780      9783      9784      9782      9780      9783      9785
      9782      9780      9783      9790      9783      9790      9786      9787
      9783      9790      9786      9788      9783      9790      9786      9789
      9784      9783      9790      9786      9785      9783      9790      9786
      9786      9789      9791      9792      9786      9789      9791      9793
      9786      9789      9791      9794      9787      9786      9789      9791
      9788      9786      9789      9791      9789      9791      9794      9795
      9789      9791      9794      9796      9789      9791      9794      9802
      9790      9786      9789      9791      9791      9794      9796      9797
      9791      9794      9802      9803      9791      9794      9802      9804
      9791      9794      9802      9805      9792      9791      9794      9795
      9792      9791      9794      9796      9792      9791      9794      9802
      9793      9791      9794      9795      9793      9791      9794      9796
      9793      9791      9794      9802      9794      9796      9797      9798
      9794      9796      9797      9799      9794      9802      9805      9806
      9795      9794      9796      9797      9795      9794      9802      9803
      9795      9794      9802      9804      9795      9794      9802      9805
      9796      9794      9802      9803      9796      9794      9802      9804
      9796      9794      9802      9805      9796      9797      9799      9800
      9796      9797      9799      9801      9796      9797      9799      9811
      9797      9796      9794      9802      9797      9799      9811      9812
      9797      9799      9811      9813      9797      9799      9811      9814
      9798      9797      9799      9800      9798      9797      9799      9801
      9798      9797      9799      9811      9799      9811      9814      9815
      9799      9811      9814      9816      9799      9811      9814      9817
      9800      9799      9811      9812      9800      9799      9811      9813
      9800      9799      9811      9814      9801      9799      9811      9812
      9801      9799      9811      9813      9801      9799      9811      9814
      9802      9805      9806      9807      9802      9805      9806      9808
      9803      9802      9805      9806      9804      9802      9805      9806
      9805      9806      9808      9809      9805      9806      9808      9810
      9805      9806      9808      9855      9806      9808      9855      9856
      9806      9808      9855      9857      9806      9808      9855      9858
      9807      9806      9808      9809      9807      9806      9808      9810
      9807      9806      9808      9855      9808      9855      9858      9859
      9808      9855      9858      9860      9808      9855      9858      9861
      9809      9808      9855      9856      9809      9808      9855      9857
      9809      9808      9855      9858      9810      9808      9855      9856
      9810      9808      9855      9857      9810      9808      9855      9858
      9811      9814      9817      9818      9811      9814      9817      9819
      9811      9814      9817      9820      9812      9811      9814      9815
      9812      9811      9814      9816      9812      9811      9814      9817
      9813      9811      9814      9815      9813      9811      9814      9816
      9813      9811      9814      9817      9814      9817      9820      9821
      9814      9817      9820      9822      9814      9817      9820      9823
      9815      9814      9817      9818      9815      9814      9817      9819
      9815      9814      9817      9820      9816      9814      9817      9818
      9816      9814      9817      9819      9816      9814      9817      9820
      9817      9820      9823      9824      9817      9820      9823      9825
      9817      9820      9823      9826      9818      9817      9820      9821
      9818      9817      9820      9822      9818      9817      9820      9823
      9819      9817      9820      9821      9819      9817      9820      9822
      9819      9817      9820      9823      9820      9823      9826      9827
      9820      9823      9826      9828      9820      9823      9826      9829
      9821      9820      9823      9824      9821      9820      9823      9825
      9821      9820      9823      9826      9822      9820      9823      9824
      9822      9820      9823      9825      9822      9820      9823      9826
      9823      9826      9829      9830      9823      9826      9829      9831
      9823      9826      9829      9834      9824      9823      9826      9827
      9824      9823      9826      9828      9824      9823      9826      9829
      9825      9823      9826      9827      9825      9823      9826      9828
      9825      9823      9826      9829      9826      9829      9831      9832
      9826      9829      9831      9833      9826      9829      9831      9834
      9826      9829      9834      9831      9826      9829      9834      9835
      9826      9829      9834      9836      9827      9826      9829      9830
      9827      9826      9829      9831      9827      9826      9829      9834
      9828      9826      9829      9830      9828      9826      9829      9831
      9828      9826      9829      9834      9829      9831      9834      9835
      9829      9831      9834      9836      9829      9834      9831      9832
      9829      9834      9831      9833      9829      9834      9836      9837
      9829      9834      9836      9838      9829      9834      9836      9839
      9830      9829      9831      9832      9830      9829      9831      9833
      9830      9829      9831      9834      9830      9829      9834      9831
      9830      9829      9834      9835      9830      9829      9834      9836
      9831      9829      9834      9835      9831      9829      9834      9836
      9831      9834      9836      9837      9831      9834      9836      9838
      9831      9834      9836      9839      9832      9831      9829      9834
      9832      9831      9834      9835      9832      9831      9834      9836
      9833      9831      9829      9834      9833      9831      9834      9835
      9833      9831      9834      9836      9834      9836      9839      9840
      9834      9836      9839      9841      9834      9836      9839      9842
      9835      9834      9836      9837      9835      9834      9836      9838
      9835      9834      9836      9839      9836      9839      9842      9843
      9836      9839      9842      9844      9836      9839      9842      9845
      9837      9836      9839      9840      9837      9836      9839      9841
      9837      9836      9839      9842      9838      9836      9839      9840
      9838      9836      9839      9841      9838      9836      9839      9842
      9839      9842      9845      9846      9839      9842      9845      9847
      9839      9842      9845      9848      9840      9839      9842      9843
      9840      9839      9842      9844      9840      9839      9842      9845
      9841      9839      9842      9843      9841      9839      9842      9844
      9841      9839      9842      9845      9842      9845      9848      9849
      9842      9845      9848      9850      9842      9845      9848      9851
      9843      9842      9845      9846      9843      9842      9845      9847
      9843      9842      9845      9848      9844      9842      9845      9846
      9844      9842      9845      9847      9844      9842      9845      9848
      9845      9848      9851      9852      9845      9848      9851      9853
      9845      9848      9851      9854      9846      9845      9848      9849
      9846      9845      9848      9850      9846      9845      9848      9851
      9847      9845      9848      9849      9847      9845      9848      9850
      9847      9845      9848      9851      9849      9848      9851      9852
      9849      9848      9851      9853      9849      9848      9851      9854
      9850      9848      9851      9852      9850      9848      9851      9853
      9850      9848      9851      9854      9855      9858      9861      9862
      9855      9858      9861      9863      9855      9858      9861      9864
      9856      9855      9858      9859      9856      9855      9858      9860
      9856      9855      9858      9861      9857      9855      9858      9859
      9857      9855      9858      9860      9857      9855      9858      9861
      9858      9861      9864      9865      9858      9861      9864      9866
      9858      9861      9864      9867      9859      9858      9861      9862
      9859      9858      9861      9863      9859      9858      9861      9864
      9860      9858      9861      9862      9860      9858      9861      9863
      9860      9858      9861      9864      9861      9864      9867      9868
      9861      9864      9867      9869      9861      9864      9867      9870
      9862      9861      9864      9865      9862      9861      9864      9866
      9862      9861      9864      9867      9863      9861      9864      9865
      9863      9861      9864      9866      9863      9861      9864      9867
      9864      9867      9870      9871      9864      9867      9870      9872
      9864      9867      9870      9873      9865      9864      9867      9868
      9865      9864      9867      9869      9865      9864      9867      9870
      9866      9864      9867      9868      9866      9864      9867      9869
      9866      9864      9867      9870      9867      9870      9873      9874
      9867      9870      9873      9875      9867      9870      9873      9876
      9868      9867      9870      9871      9868      9867      9870      9872
      9868      9867      9870      9873      9869      9867      9870      9871
      9869      9867      9870      9872      9869      9867      9870      9873
      9870      9873      9876      9877      9870      9873      9876      9878
      9870      9873      9876      9879      9871      9870      9873      9874
      9871      9870      9873      9875      9871      9870      9873      9876
      9872      9870      9873      9874      9872      9870      9873      9875
      9872      9870      9873      9876      9873      9876      9879      9880
      9873      9876      9879      9881      9873      9876      9879      9882
      9874      9873      9876      9877      9874      9873      9876      9878
      9874      9873      9876      9879      9875      9873      9876      9877
      9875      9873      9876      9878      9875      9873      9876      9879
      9876      9879      9882      9883      9876      9879      9882      9884
      9876      9879      9882      9885      9877      9876      9879      9880
      9877      9876      9879      9881      9877      9876      9879      9882
      9878      9876      9879      9880      9878      9876      9879      9881
      9878      9876      9879      9882      9879      9882      9885      9886
      9879      9882      9885      9887      9879      9882      9885      9888
      9880      9879      9882      9883      9880      9879      9882      9884
      9880      9879      9882      9885      9881      9879      9882      9883
      9881      9879      9882      9884      9881      9879      9882      9885
      9882      9885      9888      9889      9882      9885      9888      9890
      9882      9885      9888      9891      9883      9882      9885      9886
      9883      9882      9885      9887      9883      9882      9885      9888
      9884      9882      9885      9886      9884      9882      9885      9887
      9884      9882      9885      9888      9885      9888      9891      9892
      9885      9888      9891      9893      9885      9888      9891      9894
      9886      9885      9888      9889      9886      9885      9888      9890
      9886      9885      9888      9891      9887      9885      9888      9889
      9887      9885      9888      9890      9887      9885      9888      9891
      9888      9891      9894      9895      9888      9891      9894      9896
      9888      9891      9894      9897      9889      9888      9891      9892
      9889      9888      9891      9893      9889      9888      9891      9894
      9890      9888      9891      9892      9890      9888      9891      9893
      9890      9888      9891      9894      9892      9891      9894      9895
      9892      9891      9894      9896      9892      9891      9894      9897
      9893      9891      9894      9895      9893      9891      9894      9896
      9893      9891      9894      9897      9898      9902      9905      9906
      9898      9902      9905      9907      9898      9902      9905      9912
      9899      9898      9902      9903      9899      9898      9902      9904
      9899      9898      9902      9905      9900      9898      9902      9903
      9900      9898      9902      9904      9900      9898      9902      9905
      9901      9898      9902      9903      9901      9898      9902      9904
      9901      9898      9902      9905      9902      9905      9912      9908
      9903      9902      9905      9906      9903      9902      9905      9907
      9903      9902      9905      9912      9904      9902      9905      9906
      9904      9902      9905      9907      9904      9902      9905      9912
      9905      9912      9908      9909      9905      9912      9908      9910
      9905      9912      9908      9911      9906      9905      9912      9908
      9907      9905      9912      9908      9908      9911      9913      9914
      9908      9911      9913      9915      9908      9911      9913      9916
      9909      9908      9911      9913      9910      9908      9911      9913
      9911      9913      9916      9917      9911      9913      9916      9918
      9911      9913      9916      9924      9912      9908      9911      9913
      9913      9916      9918      9919      9913      9916      9924      9925
      9913      9916      9924      9926      9913      9916      9924      9927
      9914      9913      9916      9917      9914      9913      9916      9918
      9914      9913      9916      9924      9915      9913      9916      9917
      9915      9913      9916      9918      9915      9913      9916      9924
      9916      9918      9919      9920      9916      9918      9919      9921
      9916      9924      9927      9928      9917      9916      9918      9919
      9917      9916      9924      9925      9917      9916      9924      9926
      9917      9916      9924      9927      9918      9916      9924      9925
      9918      9916      9924      9926      9918      9916      9924      9927
      9918      9919      9921      9922      9918      9919      9921      9923
      9918      9919      9921      9933      9919      9918      9916      9924
      9919      9921      9933      9934      9919      9921      9933      9935
      9919      9921      9933      9936      9920      9919      9921      9922
      9920      9919      9921      9923      9920      9919      9921      9933
      9921      9933      9936      9937      9921      9933      9936      9938
      9921      9933      9936      9939      9922      9921      9933      9934
      9922      9921      9933      9935      9922      9921      9933      9936
      9923      9921      9933      9934      9923      9921      9933      9935
      9923      9921      9933      9936      9924      9927      9928      9929
      9924      9927      9928      9930      9925      9924      9927      9928
      9926      9924      9927      9928      9927      9928      9930      9931
      9927      9928      9930      9932      9927      9928      9930      9977
      9928      9930      9977      9978      9928      9930      9977      9979
      9928      9930      9977      9980      9929      9928      9930      9931
      9929      9928      9930      9932      9929      9928      9930      9977
      9930      9977      9980      9981      9930      9977      9980      9982
      9930      9977      9980      9983      9931      9930      9977      9978
      9931      9930      9977      9979      9931      9930      9977      9980
      9932      9930      9977      9978      9932      9930      9977      9979
      9932      9930      9977      9980      9933      9936      9939      9940
      9933      9936      9939      9941      9933      9936      9939      9942
      9934      9933      9936      9937      9934      9933      9936      9938
      9934      9933      9936      9939      9935      9933      9936      9937
      9935      9933      9936      9938      9935      9933      9936      9939
      9936      9939      9942      9943      9936      9939      9942      9944
      9936      9939      9942      9945      9937      9936      9939      9940
      9937      9936      9939      9941      9937      9936      9939      9942
      9938      9936      9939      9940      9938      9936      9939      9941
      9938      9936      9939      9942      9939      9942      9945      9946
      9939      9942      9945      9947      9939      9942      9945      9948
      9940      9939      9942      9943      9940      9939      9942      9944
      9940      9939      9942      9945      9941      9939      9942      9943
      9941      9939      9942      9944      9941      9939      9942      9945
      9942      9945      9948      9949      9942      9945      9948      9950
      9942      9945      9948      9951      9943      9942      9945      9946
      9943      9942      9945      9947      9943      9942      9945      9948
      9944      9942      9945      9946      9944      9942      9945      9947
      9944      9942      9945      9948      9945      9948      9951      9952
      9945      9948      9951      9953      9945      9948      9951      9956
      9946      9945      9948      9949      9946      9945      9948      9950
      9946      9945      9948      9951      9947      9945      9948      9949
      9947      9945      9948      9950      9947      9945      9948      9951
      9948      9951      9953      9954      9948      9951      9953      9955
      9948      9951      9953      9956      9948      9951      9956      9953
      9948      9951      9956      9957      9948      9951      9956      9958
      9949      9948      9951      9952      9949      9948      9951      9953
      9949      9948      9951      9956      9950      9948      9951      9952
      9950      9948      9951      9953      9950      9948      9951      9956
      9951      9953      9956      9957      9951      9953      9956      9958
      9951      9956      9953      9954      9951      9956      9953      9955
      9951      9956      9958      9959      9951      9956      9958      9960
      9951      9956      9958      9961      9952      9951      9953      9954
      9952      9951      9953      9955      9952      9951      9953      9956
      9952      9951      9956      9953      9952      9951      9956      9957
      9952      9951      9956      9958      9953      9951      9956      9957
      9953      9951      9956      9958      9953      9956      9958      9959
      9953      9956      9958      9960      9953      9956      9958      9961
      9954      9953      9951      9956      9954      9953      9956      9957
      9954      9953      9956      9958      9955      9953      9951      9956
      9955      9953      9956      9957      9955      9953      9956      9958
      9956      9958      9961      9962      9956      9958      9961      9963
      9956      9958      9961      9964      9957      9956      9958      9959
      9957      9956      9958      9960      9957      9956      9958      9961
      9958      9961      9964      9965      9958      9961      9964      9966
      9958      9961      9964      9967      9959      9958      9961      9962
      9959      9958      9961      9963      9959      9958      9961      9964
      9960      9958      9961      9962      9960      9958      9961      9963
      9960      9958      9961      9964      9961      9964      9967      9968
      9961      9964      9967      9969      9961      9964      9967      9970
      9962      9961      9964      9965      9962      9961      9964      9966
      9962      9961      9964      9967      9963      9961      9964      9965
      9963      9961      9964      9966      9963      9961      9964      9967
      9964      9967      9970      9971      9964      9967      9970      9972
      9964      9967      9970      9973      9965      9964      9967      9968
      9965      9964      9967      9969      9965      9964      9967      9970
      9966      9964      9967      9968      9966      9964      9967      9969
      9966      9964      9967      9970      9967      9970      9973      9974
      9967      9970      9973      9975      9967      9970      9973      9976
      9968      9967      9970      9971      9968      9967      9970      9972
      9968      9967      9970      9973      9969      9967      9970      9971
      9969      9967      9970      9972      9969      9967      9970      9973
      9971      9970      9973      9974      9971      9970      9973      9975
      9971      9970      9973      9976      9972      9970      9973      9974
      9972      9970      9973      9975      9972      9970      9973      9976
      9977      9980      9983      9984      9977      9980      9983      9985
      9977      9980      9983      9986      9978      9977      9980      9981
      9978      9977      9980      9982      9978      9977      9980      9983
      9979      9977      9980      9981      9979      9977      9980      9982
      9979      9977      9980      9983      9980      9983      9986      9987
      9980      9983      9986      9988      9980      9983      9986      9989
      9981      9980      9983      9984      9981      9980      9983      9985
      9981      9980      9983      9986      9982      9980      9983      9984
      9982      9980      9983      9985      9982      9980      9983      9986
      9983      9986      9989      9990      9983      9986      9989      9991
      9983      9986      9989      9992      9984      9983      9986      9987
      9984      9983      9986      9988      9984      9983      9986      9989
      9985      9983      9986      9987      9985      9983      9986      9988
      9985      9983      9986      9989      9986      9989      9992      9993
      9986      9989      9992      9994      9986      9989      9992      9995
      9987      9986      9989      9990      9987      9986      9989      9991
      9987      9986      9989      9992      9988      9986      9989      9990
      9988      9986      9989      9991      9988      9986      9989      9992
      9989      9992      9995      9996      9989      9992      9995      9997
      9989      9992      9995      9998      9990      9989      9992      9993
      9990      9989      9992      9994      9990      9989      9992      9995
      9991      9989      9992      9993      9991      9989      9992      9994
      9991      9989      9992      9995      9992      9995      9998      9999
      9992      9995      9998     10000      9992      9995      9998     10001
      9993      9992      9995      9996      9993      9992      9995      9997
      9993      9992      9995      9998      9994      9992      9995      9996
      9994      9992      9995      9997      9994      9992      9995      9998
      9995      9998     10001     10002      9995      9998     10001     10003
      9995      9998     10001     10004      9996      9995      9998      9999
      9996      9995      9998     10000      9996      9995      9998     10001
      9997      9995      9998      9999      9997      9995      9998     10000
      9997      9995      9998     10001      9998     10001     10004     10005
      9998     10001     10004     10006      9998     10001     10004     10007
      9999      9998     10001     10002      9999      9998     10001     10003
      9999      9998     10001     10004     10000      9998     10001     10002
     10000      9998     10001     10003     10000      9998     10001     10004
     10001     10004     10007     10008     10001     10004     10007     10009
     10001     10004     10007     10010     10002     10001     10004     10005
     10002     10001     10004     10006     10002     10001     10004     10007
     10003     10001     10004     10005     10003     10001     10004     10006
     10003     10001     10004     10007     10004     10007     10010     10011
     10004     10007     10010     10012     10004     10007     10010     10013
     10005     10004     10007     10008     10005     10004     10007     10009
     10005     10004     10007     10010     10006     10004     10007     10008
     10006     10004     10007     10009     10006     10004     10007     10010
     10007     10010     10013     10014     10007     10010     10013     10015
     10007     10010     10013     10016     10008     10007     10010     10011
     10008     10007     10010     10012     10008     10007     10010     10013
     10009     10007     10010     10011     10009     10007     10010     10012
     10009     10007     10010     10013     10011     10010     10013     10014
     10011     10010     10013     10015     10011     10010     10013     10016
     10012     10010     10013     10014     10012     10010     10013     10015
     10012     10010     10013     10016     10017     10021     10024     10025
     10017     10021     10024     10026     10017     10021     10024     10031
     10018     10017     10021     10022     10018     10017     10021     10023
     10018     10017     10021     10024     10019     10017     10021     10022
     10019     10017     10021     10023     10019     10017     10021     10024
     10020     10017     10021     10022     10020     10017     10021     10023
     10020     10017     10021     10024     10021     10024     10031     10027
     10022     10021     10024     10025     10022     10021     10024     10026
     10022     10021     10024     10031     10023     10021     10024     10025
     10023     10021     10024     10026     10023     10021     10024     10031
     10024     10031     10027     10028     10024     10031     10027     10029
     10024     10031     10027     10030     10025     10024     10031     10027
     10026     10024     10031     10027     10027     10030     10032     10033
     10027     10030     10032     10034     10027     10030     10032     10035
     10028     10027     10030     10032     10029     10027     10030     10032
     10030     10032     10035     10036     10030     10032     10035     10037
     10030     10032     10035     10043     10031     10027     10030     10032
     10032     10035     10037     10038     10032     10035     10043     10044
     10032     10035     10043     10045     10032     10035     10043     10046
     10033     10032     10035     10036     10033     10032     10035     10037
     10033     10032     10035     10043     10034     10032     10035     10036
     10034     10032     10035     10037     10034     10032     10035     10043
     10035     10037     10038     10039     10035     10037     10038     10040
     10035     10043     10046     10047     10036     10035     10037     10038
     10036     10035     10043     10044     10036     10035     10043     10045
     10036     10035     10043     10046     10037     10035     10043     10044
     10037     10035     10043     10045     10037     10035     10043     10046
     10037     10038     10040     10041     10037     10038     10040     10042
     10037     10038     10040     10052     10038     10037     10035     10043
     10038     10040     10052     10053     10038     10040     10052     10054
     10038     10040     10052     10055     10039     10038     10040     10041
     10039     10038     10040     10042     10039     10038     10040     10052
     10040     10052     10055     10056     10040     10052     10055     10057
     10040     10052     10055     10058     10041     10040     10052     10053
     10041     10040     10052     10054     10041     10040     10052     10055
     10042     10040     10052     10053     10042     10040     10052     10054
     10042     10040     10052     10055     10043     10046     10047     10048
     10043     10046     10047     10049     10044     10043     10046     10047
     10045     10043     10046     10047     10046     10047     10049     10050
     10046     10047     10049     10051     10046     10047     10049     10096
     10047     10049     10096     10097     10047     10049     10096     10098
     10047     10049     10096     10099     10048     10047     10049     10050
     10048     10047     10049     10051     10048     10047     10049     10096
     10049     10096     10099     10100     10049     10096     10099     10101
     10049     10096     10099     10102     10050     10049     10096     10097
     10050     10049     10096     10098     10050     10049     10096     10099
     10051     10049     10096     10097     10051     10049     10096     10098
     10051     10049     10096     10099     10052     10055     10058     10059
     10052     10055     10058     10060     10052     10055     10058     10061
     10053     10052     10055     10056     10053     10052     10055     10057
     10053     10052     10055     10058     10054     10052     10055     10056
     10054     10052     10055     10057     10054     10052     10055     10058
     10055     10058     10061     10062     10055     10058     10061     10063
     10055     10058     10061     10064     10056     10055     10058     10059
     10056     10055     10058     10060     10056     10055     10058     10061
     10057     10055     10058     10059     10057     10055     10058     10060
     10057     10055     10058     10061     10058     10061     10064     10065
     10058     10061     10064     10066     10058     10061     10064     10067
     10059     10058     10061     10062     10059     10058     10061     10063
     10059     10058     10061     10064     10060     10058     10061     10062
     10060     10058     10061     10063     10060     10058     10061     10064
     10061     10064     10067     10068     10061     10064     10067     10069
     10061     10064     10067     10070     10062     10061     10064     10065
     10062     10061     10064     10066     10062     10061     10064     10067
     10063     10061     10064     10065     10063     10061     10064     10066
     10063     10061     10064     10067     10064     10067     10070     10071
     10064     10067     10070     10072     10064     10067     10070     10075
     10065     10064     10067     10068     10065     10064     10067     10069
     10065     10064     10067     10070     10066     10064     10067     10068
     10066     10064     10067     10069     10066     10064     10067     10070
     10067     10070     10072     10073     10067     10070     10072     10074
     10067     10070     10072     10075     10067     10070     10075     10072
     10067     10070     10075     10076     10067     10070     10075     10077
     10068     10067     10070     10071     10068     10067     10070     10072
     10068     10067     10070     10075     10069     10067     10070     10071
     10069     10067     10070     10072     10069     10067     10070     10075
     10070     10072     10075     10076     10070     10072     10075     10077
     10070     10075     10072     10073     10070     10075     10072     10074
     10070     10075     10077     10078     10070     10075     10077     10079
     10070     10075     10077     10080     10071     10070     10072     10073
     10071     10070     10072     10074     10071     10070     10072     10075
     10071     10070     10075     10072     10071     10070     10075     10076
     10071     10070     10075     10077     10072     10070     10075     10076
     10072     10070     10075     10077     10072     10075     10077     10078
     10072     10075     10077     10079     10072     10075     10077     10080
     10073     10072     10070     10075     10073     10072     10075     10076
     10073     10072     10075     10077     10074     10072     10070     10075
     10074     10072     10075     10076     10074     10072     10075     10077
     10075     10077     10080     10081     10075     10077     10080     10082
     10075     10077     10080     10083     10076     10075     10077     10078
     10076     10075     10077     10079     10076     10075     10077     10080
     10077     10080     10083     10084     10077     10080     10083     10085
     10077     10080     10083     10086     10078     10077     10080     10081
     10078     10077     10080     10082     10078     10077     10080     10083
     10079     10077     10080     10081     10079     10077     10080     10082
     10079     10077     10080     10083     10080     10083     10086     10087
     10080     10083     10086     10088     10080     10083     10086     10089
     10081     10080     10083     10084     10081     10080     10083     10085
     10081     10080     10083     10086     10082     10080     10083     10084
     10082     10080     10083     10085     10082     10080     10083     10086
     10083     10086     10089     10090     10083     10086     10089     10091
     10083     10086     10089     10092     10084     10083     10086     10087
     10084     10083     10086     10088     10084     10083     10086     10089
     10085     10083     10086     10087     10085     10083     10086     10088
     10085     10083     10086     10089     10086     10089     10092     10093
     10086     10089     10092     10094     10086     10089     10092     10095
     10087     10086     10089     10090     10087     10086     10089     10091
     10087     10086     10089     10092     10088     10086     10089     10090
     10088     10086     10089     10091     10088     10086     10089     10092
     10090     10089     10092     10093     10090     10089     10092     10094
     10090     10089     10092     10095     10091     10089     10092     10093
     10091     10089     10092     10094     10091     10089     10092     10095
     10096     10099     10102     10103     10096     10099     10102     10104
     10096     10099     10102     10105     10097     10096     10099     10100
     10097     10096     10099     10101     10097     10096     10099     10102
     10098     10096     10099     10100     10098     10096     10099     10101
     10098     10096     10099     10102     10099     10102     10105     10106
     10099     10102     10105     10107     10099     10102     10105     10108
     10100     10099     10102     10103     10100     10099     10102     10104
     10100     10099     10102     10105     10101     10099     10102     10103
     10101     10099     10102     10104     10101     10099     10102     10105
     10102     10105     10108     10109     10102     10105     10108     10110
     10102     10105     10108     10111     10103     10102     10105     10106
     10103     10102     10105     10107     10103     10102     10105     10108
     10104     10102     10105     10106     10104     10102     10105     10107
     10104     10102     10105     10108     10105     10108     10111     10112
     10105     10108     10111     10113     10105     10108     10111     10114
     10106     10105     10108     10109     10106     10105     10108     10110
     10106     10105     10108     10111     10107     10105     10108     10109
     10107     10105     10108     10110     10107     10105     10108     10111
     10108     10111     10114     10115     10108     10111     10114     10116
     10108     10111     10114     10117     10109     10108     10111     10112
     10109     10108     10111     10113     10109     10108     10111     10114
     10110     10108     10111     10112     10110     10108     10111     10113
     10110     10108     10111     10114     10111     10114     10117     10118
     10111     10114     10117     10119     10111     10114     10117     10120
     10112     10111     10114     10115     10112     10111     10114     10116
     10112     10111     10114     10117     10113     10111     10114     10115
     10113     10111     10114     10116     10113     10111     10114     10117
     10114     10117     10120     10121     10114     10117     10120     10122
     10114     10117     10120     10123     10115     10114     10117     10118
     10115     10114     10117     10119     10115     10114     10117     10120
     10116     10114     10117     10118     10116     10114     10117     10119
     10116     10114     10117     10120     10117     10120     10123     10124
     10117     10120     10123     10125     10117     10120     10123     10126
     10118     10117     10120     10121     10118     10117     10120     10122
     10118     10117     10120     10123     10119     10117     10120     10121
     10119     10117     10120     10122     10119     10117     10120     10123
     10120     10123     10126     10127     10120     10123     10126     10128
     10120     10123     10126     10129     10121     10120     10123     10124
     10121     10120     10123     10125     10121     10120     10123     10126
     10122     10120     10123     10124     10122     10120     10123     10125
     10122     10120     10123     10126     10123     10126     10129     10130
     10123     10126     10129     10131     10123     10126     10129     10132
     10124     10123     10126     10127     10124     10123     10126     10128
     10124     10123     10126     10129     10125     10123     10126     10127
     10125     10123     10126     10128     10125     10123     10126     10129
     10126     10129     10132     10133     10126     10129     10132     10134
     10126     10129     10132     10135     10127     10126     10129     10130
     10127     10126     10129     10131     10127     10126     10129     10132
     10128     10126     10129     10130     10128     10126     10129     10131
     10128     10126     10129     10132     10129     10132     10135     10136
     10129     10132     10135     10137     10129     10132     10135     10138
     10130     10129     10132     10133     10130     10129     10132     10134
     10130     10129     10132     10135     10131     10129     10132     10133
     10131     10129     10132     10134     10131     10129     10132     10135
     10133     10132     10135     10136     10133     10132     10135     10137
     10133     10132     10135     10138     10134     10132     10135     10136
     10134     10132     10135     10137     10134     10132     10135     10138
     10139     10143     10146     10147     10139     10143     10146     10148
     10139     10143     10146     10153     10140     10139     10143     10144
     10140     10139     10143     10145     10140     10139     10143     10146
     10141     10139     10143     10144     10141     10139     10143     10145
     10141     10139     10143     10146     10142     10139     10143     10144
     10142     10139     10143     10145     10142     10139     10143     10146
     10143     10146     10153     10149     10144     10143     10146     10147
     10144     10143     10146     10148     10144     10143     10146     10153
     10145     10143     10146     10147     10145     10143     10146     10148
     10145     10143     10146     10153     10146     10153     10149     10150
     10146     10153     10149     10151     10146     10153     10149     10152
     10147     10146     10153     10149     10148     10146     10153     10149
     10149     10152     10154     10155     10149     10152     10154     10156
     10149     10152     10154     10157     10150     10149     10152     10154
     10151     10149     10152     10154     10152     10154     10157     10158
     10152     10154     10157     10159     10152     10154     10157     10165
     10153     10149     10152     10154     10154     10157     10159     10160
     10154     10157     10165     10166     10154     10157     10165     10167
     10154     10157     10165     10168     10155     10154     10157     10158
     10155     10154     10157     10159     10155     10154     10157     10165
     10156     10154     10157     10158     10156     10154     10157     10159
     10156     10154     10157     10165     10157     10159     10160     10161
     10157     10159     10160     10162     10157     10165     10168     10169
     10158     10157     10159     10160     10158     10157     10165     10166
     10158     10157     10165     10167     10158     10157     10165     10168
     10159     10157     10165     10166     10159     10157     10165     10167
     10159     10157     10165     10168     10159     10160     10162     10163
     10159     10160     10162     10164     10159     10160     10162     10174
     10160     10159     10157     10165     10160     10162     10174     10175
     10160     10162     10174     10176     10160     10162     10174     10177
     10161     10160     10162     10163     10161     10160     10162     10164
     10161     10160     10162     10174     10162     10174     10177     10178
     10162     10174     10177     10179     10162     10174     10177     10180
     10163     10162     10174     10175     10163     10162     10174     10176
     10163     10162     10174     10177     10164     10162     10174     10175
     10164     10162     10174     10176     10164     10162     10174     10177
     10165     10168     10169     10170     10165     10168     10169     10171
     10166     10165     10168     10169     10167     10165     10168     10169
     10168     10169     10171     10172     10168     10169     10171     10173
     10168     10169     10171     10218     10169     10171     10218     10219
     10169     10171     10218     10220     10169     10171     10218     10221
     10170     10169     10171     10172     10170     10169     10171     10173
     10170     10169     10171     10218     10171     10218     10221     10222
     10171     10218     10221     10223     10171     10218     10221     10224
     10172     10171     10218     10219     10172     10171     10218     10220
     10172     10171     10218     10221     10173     10171     10218     10219
     10173     10171     10218     10220     10173     10171     10218     10221
     10174     10177     10180     10181     10174     10177     10180     10182
     10174     10177     10180     10183     10175     10174     10177     10178
     10175     10174     10177     10179     10175     10174     10177     10180
     10176     10174     10177     10178     10176     10174     10177     10179
     10176     10174     10177     10180     10177     10180     10183     10184
     10177     10180     10183     10185     10177     10180     10183     10186
     10178     10177     10180     10181     10178     10177     10180     10182
     10178     10177     10180     10183     10179     10177     10180     10181
     10179     10177     10180     10182     10179     10177     10180     10183
     10180     10183     10186     10187     10180     10183     10186     10188
     10180     10183     10186     10189     10181     10180     10183     10184
     10181     10180     10183     10185     10181     10180     10183     10186
     10182     10180     10183     10184     10182     10180     10183     10185
     10182     10180     10183     10186     10183     10186     10189     10190
     10183     10186     10189     10191     10183     10186     10189     10192
     10184     10183     10186     10187     10184     10183     10186     10188
     10184     10183     10186     10189     10185     10183     10186     10187
     10185     10183     10186     10188     10185     10183     10186     10189
     10186     10189     10192     10193     10186     10189     10192     10194
     10186     10189     10192     10197     10187     10186     10189     10190
     10187     10186     10189     10191     10187     10186     10189     10192
     10188     10186     10189     10190     10188     10186     10189     10191
     10188     10186     10189     10192     10189     10192     10194     10195
     10189     10192     10194     10196     10189     10192     10194     10197
     10189     10192     10197     10194     10189     10192     10197     10198
     10189     10192     10197     10199     10190     10189     10192     10193
     10190     10189     10192     10194     10190     10189     10192     10197
     10191     10189     10192     10193     10191     10189     10192     10194
     10191     10189     10192     10197     10192     10194     10197     10198
     10192     10194     10197     10199     10192     10197     10194     10195
     10192     10197     10194     10196     10192     10197     10199     10200
     10192     10197     10199     10201     10192     10197     10199     10202
     10193     10192     10194     10195     10193     10192     10194     10196
     10193     10192     10194     10197     10193     10192     10197     10194
     10193     10192     10197     10198     10193     10192     10197     10199
     10194     10192     10197     10198     10194     10192     10197     10199
     10194     10197     10199     10200     10194     10197     10199     10201
     10194     10197     10199     10202     10195     10194     10192     10197
     10195     10194     10197     10198     10195     10194     10197     10199
     10196     10194     10192     10197     10196     10194     10197     10198
     10196     10194     10197     10199     10197     10199     10202     10203
     10197     10199     10202     10204     10197     10199     10202     10205
     10198     10197     10199     10200     10198     10197     10199     10201
     10198     10197     10199     10202     10199     10202     10205     10206
     10199     10202     10205     10207     10199     10202     10205     10208
     10200     10199     10202     10203     10200     10199     10202     10204
     10200     10199     10202     10205     10201     10199     10202     10203
     10201     10199     10202     10204     10201     10199     10202     10205
     10202     10205     10208     10209     10202     10205     10208     10210
     10202     10205     10208     10211     10203     10202     10205     10206
     10203     10202     10205     10207     10203     10202     10205     10208
     10204     10202     10205     10206     10204     10202     10205     10207
     10204     10202     10205     10208     10205     10208     10211     10212
     10205     10208     10211     10213     10205     10208     10211     10214
     10206     10205     10208     10209     10206     10205     10208     10210
     10206     10205     10208     10211     10207     10205     10208     10209
     10207     10205     10208     10210     10207     10205     10208     10211
     10208     10211     10214     10215     10208     10211     10214     10216
     10208     10211     10214     10217     10209     10208     10211     10212
     10209     10208     10211     10213     10209     10208     10211     10214
     10210     10208     10211     10212     10210     10208     10211     10213
     10210     10208     10211     10214     10212     10211     10214     10215
     10212     10211     10214     10216     10212     10211     10214     10217
     10213     10211     10214     10215     10213     10211     10214     10216
     10213     10211     10214     10217     10218     10221     10224     10225
     10218     10221     10224     10226     10218     10221     10224     10227
     10219     10218     10221     10222     10219     10218     10221     10223
     10219     10218     10221     10224     10220     10218     10221     10222
     10220     10218     10221     10223     10220     10218     10221     10224
     10221     10224     10227     10228     10221     10224     10227     10229
     10221     10224     10227     10230     10222     10221     10224     10225
     10222     10221     10224     10226     10222     10221     10224     10227
     10223     10221     10224     10225     10223     10221     10224     10226
     10223     10221     10224     10227     10224     10227     10230     10231
     10224     10227     10230     10232     10224     10227     10230     10233
     10225     10224     10227     10228     10225     10224     10227     10229
     10225     10224     10227     10230     10226     10224     10227     10228
     10226     10224     10227     10229     10226     10224     10227     10230
     10227     10230     10233     10234     10227     10230     10233     10235
     10227     10230     10233     10236     10228     10227     10230     10231
     10228     10227     10230     10232     10228     10227     10230     10233
     10229     10227     10230     10231     10229     10227     10230     10232
     10229     10227     10230     10233     10230     10233     10236     10237
     10230     10233     10236     10238     10230     10233     10236     10239
     10231     10230     10233     10234     10231     10230     10233     10235
     10231     10230     10233     10236     10232     10230     10233     10234
     10232     10230     10233     10235     10232     10230     10233     10236
     10233     10236     10239     10240     10233     10236     10239     10241
     10233     10236     10239     10242     10234     10233     10236     10237
     10234     10233     10236     10238     10234     10233     10236     10239
     10235     10233     10236     10237     10235     10233     10236     10238
     10235     10233     10236     10239     10236     10239     10242     10243
     10236     10239     10242     10244     10236     10239     10242     10245
     10237     10236     10239     10240     10237     10236     10239     10241
     10237     10236     10239     10242     10238     10236     10239     10240
     10238     10236     10239     10241     10238     10236     10239     10242
     10239     10242     10245     10246     10239     10242     10245     10247
     10239     10242     10245     10248     10240     10239     10242     10243
     10240     10239     10242     10244     10240     10239     10242     10245
     10241     10239     10242     10243     10241     10239     10242     10244
     10241     10239     10242     10245     10242     10245     10248     10249
     10242     10245     10248     10250     10242     10245     10248     10251
     10243     10242     10245     10246     10243     10242     10245     10247
     10243     10242     10245     10248     10244     10242     10245     10246
     10244     10242     10245     10247     10244     10242     10245     10248
     10245     10248     10251     10252     10245     10248     10251     10253
     10245     10248     10251     10254     10246     10245     10248     10249
     10246     10245     10248     10250     10246     10245     10248     10251
     10247     10245     10248     10249     10247     10245     10248     10250
     10247     10245     10248     10251     10248     10251     10254     10255
     10248     10251     10254     10256     10248     10251     10254     10257
     10249     10248     10251     10252     10249     10248     10251     10253
     10249     10248     10251     10254     10250     10248     10251     10252
     10250     10248     10251     10253     10250     10248     10251     10254
     10252     10251     10254     10255     10252     10251     10254     10256
     10252     10251     10254     10257     10253     10251     10254     10255
     10253     10251     10254     10256     10253     10251     10254     10257
     10258     10262     10265     10266     10258     10262     10265     10267
     10258     10262     10265     10272     10259     10258     10262     10263
     10259     10258     10262     10264     10259     10258     10262     10265
     10260     10258     10262     10263     10260     10258     10262     10264
     10260     10258     10262     10265     10261     10258     10262     10263
     10261     10258     10262     10264     10261     10258     10262     10265
     10262     10265     10272     10268     10263     10262     10265     10266
     10263     10262     10265     10267     10263     10262     10265     10272
     10264     10262     10265     10266     10264     10262     10265     10267
     10264     10262     10265     10272     10265     10272     10268     10269
     10265     10272     10268     10270     10265     10272     10268     10271
     10266     10265     10272     10268     10267     10265     10272     10268
     10268     10271     10273     10274     10268     10271     10273     10275
     10268     10271     10273     10276     10269     10268     10271     10273
     10270     10268     10271     10273     10271     10273     10276     10277
     10271     10273     10276     10278     10271     10273     10276     10284
     10272     10268     10271     10273     10273     10276     10278     10279
     10273     10276     10284     10285     10273     10276     10284     10286
     10273     10276     10284     10287     10274     10273     10276     10277
     10274     10273     10276     10278     10274     10273     10276     10284
     10275     10273     10276     10277     10275     10273     10276     10278
     10275     10273     10276     10284     10276     10278     10279     10280
     10276     10278     10279     10281     10276     10284     10287     10288
     10277     10276     10278     10279     10277     10276     10284     10285
     10277     10276     10284     10286     10277     10276     10284     10287
     10278     10276     10284     10285     10278     10276     10284     10286
     10278     10276     10284     10287     10278     10279     10281     10282
     10278     10279     10281     10283     10278     10279     10281     10293
     10279     10278     10276     10284     10279     10281     10293     10294
     10279     10281     10293     10295     10279     10281     10293     10296
     10280     10279     10281     10282     10280     10279     10281     10283
     10280     10279     10281     10293     10281     10293     10296     10297
     10281     10293     10296     10298     10281     10293     10296     10299
     10282     10281     10293     10294     10282     10281     10293     10295
     10282     10281     10293     10296     10283     10281     10293     10294
     10283     10281     10293     10295     10283     10281     10293     10296
     10284     10287     10288     10289     10284     10287     10288     10290
     10285     10284     10287     10288     10286     10284     10287     10288
     10287     10288     10290     10291     10287     10288     10290     10292
     10287     10288     10290     10340     10288     10290     10340     10341
     10288     10290     10340     10342     10288     10290     10340     10343
     10289     10288     10290     10291     10289     10288     10290     10292
     10289     10288     10290     10340     10290     10340     10343     10344
     10290     10340     10343     10345     10290     10340     10343     10346
     10291     10290     10340     10341     10291     10290     10340     10342
     10291     10290     10340     10343     10292     10290     10340     10341
     10292     10290     10340     10342     10292     10290     10340     10343
     10293     10296     10299     10300     10293     10296     10299     10301
     10293     10296     10299     10302     10294     10293     10296     10297
     10294     10293     10296     10298     10294     10293     10296     10299
     10295     10293     10296     10297     10295     10293     10296     10298
     10295     10293     10296     10299     10296     10299     10302     10303
     10296     10299     10302     10304     10296     10299     10302     10305
     10297     10296     10299     10300     10297     10296     10299     10301
     10297     10296     10299     10302     10298     10296     10299     10300
     10298     10296     10299     10301     10298     10296     10299     10302
     10299     10302     10305     10306     10299     10302     10305     10307
     10299     10302     10305     10308     10300     10299     10302     10303
     10300     10299     10302     10304     10300     10299     10302     10305
     10301     10299     10302     10303     10301     10299     10302     10304
     10301     10299     10302     10305     10302     10305     10308     10309
     10302     10305     10308     10310     10302     10305     10308     10311
     10303     10302     10305     10306     10303     10302     10305     10307
     10303     10302     10305     10308     10304     10302     10305     10306
     10304     10302     10305     10307     10304     10302     10305     10308
     10305     10308     10311     10312     10305     10308     10311     10313
     10306     10305     10308     10309     10306     10305     10308     10310
     10306     10305     10308     10311     10307     10305     10308     10309
     10307     10305     10308     10310     10307     10305     10308     10311
     10308     10311     10313     10314     10308     10311     10313     10315
     10309     10308     10311     10312     10309     10308     10311     10313
     10310     10308     10311     10312     10310     10308     10311     10313
     10311     10313     10315     10316     10311     10313     10315     10317
     10311     10313     10315     10318     10312     10311     10313     10314
     10312     10311     10313     10315     10313     10315     10318     10319
     10313     10315     10318     10320     10313     10315     10318     10321
     10314     10313     10315     10316     10314     10313     10315     10317
     10314     10313     10315     10318     10315     10318     10321     10322
     10315     10318     10321     10323     10315     10318     10321     10324
     10316     10315     10318     10319     10316     10315     10318     10320
     10316     10315     10318     10321     10317     10315     10318     10319
     10317     10315     10318     10320     10317     10315     10318     10321
     10318     10321     10324     10325     10318     10321     10324     10326
     10318     10321     10324     10327     10319     10318     10321     10322
     10319     10318     10321     10323     10319     10318     10321     10324
     10320     10318     10321     10322     10320     10318     10321     10323
     10320     10318     10321     10324     10321     10324     10327     10328
     10321     10324     10327     10329     10321     10324     10327     10330
     10322     10321     10324     10325     10322     10321     10324     10326
     10322     10321     10324     10327     10323     10321     10324     10325
     10323     10321     10324     10326     10323     10321     10324     10327
     10324     10327     10330     10331     10324     10327     10330     10332
     10324     10327     10330     10333     10325     10324     10327     10328
     10325     10324     10327     10329     10325     10324     10327     10330
     10326     10324     10327     10328     10326     10324     10327     10329
     10326     10324     10327     10330     10327     10330     10333     10334
     10327     10330     10333     10335     10327     10330     10333     10336
     10328     10327     10330     10331     10328     10327     10330     10332
     10328     10327     10330     10333     10329     10327     10330     10331
     10329     10327     10330     10332     10329     10327     10330     10333
     10330     10333     10336     10337     10330     10333     10336     10338
     10330     10333     10336     10339     10331     10330     10333     10334
     10331     10330     10333     10335     10331     10330     10333     10336
     10332     10330     10333     10334     10332     10330     10333     10335
     10332     10330     10333     10336     10334     10333     10336     10337
     10334     10333     10336     10338     10334     10333     10336     10339
     10335     10333     10336     10337     10335     10333     10336     10338
     10335     10333     10336     10339     10340     10343     10346     10347
     10340     10343     10346     10348     10340     10343     10346     10349
     10341     10340     10343     10344     10341     10340     10343     10345
     10341     10340     10343     10346     10342     10340     10343     10344
     10342     10340     10343     10345     10342     10340     10343     10346
     10343     10346     10349     10350     10343     10346     10349     10351
     10343     10346     10349     10352     10344     10343     10346     10347
     10344     10343     10346     10348     10344     10343     10346     10349
     10345     10343     10346     10347     10345     10343     10346     10348
     10345     10343     10346     10349     10346     10349     10352     10353
     10346     10349     10352     10354     10346     10349     10352     10355
     10347     10346     10349     10350     10347     10346     10349     10351
     10347     10346     10349     10352     10348     10346     10349     10350
     10348     10346     10349     10351     10348     10346     10349     10352
     10349     10352     10355     10356     10349     10352     10355     10357
     10349     10352     10355     10358     10350     10349     10352     10353
     10350     10349     10352     10354     10350     10349     10352     10355
     10351     10349     10352     10353     10351     10349     10352     10354
     10351     10349     10352     10355     10352     10355     10358     10359
     10352     10355     10358     10360     10352     10355     10358     10361
     10353     10352     10355     10356     10353     10352     10355     10357
     10353     10352     10355     10358     10354     10352     10355     10356
     10354     10352     10355     10357     10354     10352     10355     10358
     10355     10358     10361     10362     10355     10358     10361     10363
     10355     10358     10361     10364     10356     10355     10358     10359
     10356     10355     10358     10360     10356     10355     10358     10361
     10357     10355     10358     10359     10357     10355     10358     10360
     10357     10355     10358     10361     10358     10361     10364     10365
     10358     10361     10364     10366     10358     10361     10364     10367
     10359     10358     10361     10362     10359     10358     10361     10363
     10359     10358     10361     10364     10360     10358     10361     10362
     10360     10358     10361     10363     10360     10358     10361     10364
     10361     10364     10367     10368     10361     10364     10367     10369
     10361     10364     10367     10370     10362     10361     10364     10365
     10362     10361     10364     10366     10362     10361     10364     10367
     10363     10361     10364     10365     10363     10361     10364     10366
     10363     10361     10364     10367     10364     10367     10370     10371
     10364     10367     10370     10372     10364     10367     10370     10373
     10365     10364     10367     10368     10365     10364     10367     10369
     10365     10364     10367     10370     10366     10364     10367     10368
     10366     10364     10367     10369     10366     10364     10367     10370
     10367     10370     10373     10374     10367     10370     10373     10375
     10367     10370     10373     10376     10368     10367     10370     10371
     10368     10367     10370     10372     10368     10367     10370     10373
     10369     10367     10370     10371     10369     10367     10370     10372
     10369     10367     10370     10373     10370     10373     10376     10377
     10370     10373     10376     10378     10370     10373     10376     10379
     10371     10370     10373     10374     10371     10370     10373     10375
     10371     10370     10373     10376     10372     10370     10373     10374
     10372     10370     10373     10375     10372     10370     10373     10376
     10373     10376     10379     10380     10373     10376     10379     10381
     10373     10376     10379     10382     10374     10373     10376     10377
     10374     10373     10376     10378     10374     10373     10376     10379
     10375     10373     10376     10377     10375     10373     10376     10378
     10375     10373     10376     10379     10377     10376     10379     10380
     10377     10376     10379     10381     10377     10376     10379     10382
     10378     10376     10379     10380     10378     10376     10379     10381
     10378     10376     10379     10382     10383     10387     10390     10391
     10383     10387     10390     10392     10383     10387     10390     10397
     10384     10383     10387     10388     10384     10383     10387     10389
     10384     10383     10387     10390     10385     10383     10387     10388
     10385     10383     10387     10389     10385     10383     10387     10390
     10386     10383     10387     10388     10386     10383     10387     10389
     10386     10383     10387     10390     10387     10390     10397     10393
     10388     10387     10390     10391     10388     10387     10390     10392
     10388     10387     10390     10397     10389     10387     10390     10391
     10389     10387     10390     10392     10389     10387     10390     10397
     10390     10397     10393     10394     10390     10397     10393     10395
     10390     10397     10393     10396     10391     10390     10397     10393
     10392     10390     10397     10393     10393     10396     10398     10399
     10393     10396     10398     10400     10393     10396     10398     10401
     10394     10393     10396     10398     10395     10393     10396     10398
     10396     10398     10401     10402     10396     10398     10401     10403
     10396     10398     10401     10409     10397     10393     10396     10398
     10398     10401     10403     10404     10398     10401     10409     10410
     10398     10401     10409     10411     10398     10401     10409     10412
     10399     10398     10401     10402     10399     10398     10401     10403
     10399     10398     10401     10409     10400     10398     10401     10402
     10400     10398     10401     10403     10400     10398     10401     10409
     10401     10403     10404     10405     10401     10403     10404     10406
     10401     10409     10412     10413     10402     10401     10403     10404
     10402     10401     10409     10410     10402     10401     10409     10411
     10402     10401     10409     10412     10403     10401     10409     10410
     10403     10401     10409     10411     10403     10401     10409     10412
     10403     10404     10406     10407     10403     10404     10406     10408
     10403     10404     10406     10418     10404     10403     10401     10409
     10404     10406     10418     10419     10404     10406     10418     10420
     10404     10406     10418     10421     10405     10404     10406     10407
     10405     10404     10406     10408     10405     10404     10406     10418
     10406     10418     10421     10422     10406     10418     10421     10423
     10406     10418     10421     10424     10407     10406     10418     10419
     10407     10406     10418     10420     10407     10406     10418     10421
     10408     10406     10418     10419     10408     10406     10418     10420
     10408     10406     10418     10421     10409     10412     10413     10414
     10409     10412     10413     10415     10410     10409     10412     10413
     10411     10409     10412     10413     10412     10413     10415     10416
     10412     10413     10415     10417     10412     10413     10415     10465
     10413     10415     10465     10466     10413     10415     10465     10467
     10413     10415     10465     10468     10414     10413     10415     10416
     10414     10413     10415     10417     10414     10413     10415     10465
     10415     10465     10468     10469     10415     10465     10468     10470
     10415     10465     10468     10471     10416     10415     10465     10466
     10416     10415     10465     10467     10416     10415     10465     10468
     10417     10415     10465     10466     10417     10415     10465     10467
     10417     10415     10465     10468     10418     10421     10424     10425
     10418     10421     10424     10426     10418     10421     10424     10427
     10419     10418     10421     10422     10419     10418     10421     10423
     10419     10418     10421     10424     10420     10418     10421     10422
     10420     10418     10421     10423     10420     10418     10421     10424
     10421     10424     10427     10428     10421     10424     10427     10429
     10421     10424     10427     10430     10422     10421     10424     10425
     10422     10421     10424     10426     10422     10421     10424     10427
     10423     10421     10424     10425     10423     10421     10424     10426
     10423     10421     10424     10427     10424     10427     10430     10431
     10424     10427     10430     10432     10424     10427     10430     10433
     10425     10424     10427     10428     10425     10424     10427     10429
     10425     10424     10427     10430     10426     10424     10427     10428
     10426     10424     10427     10429     10426     10424     10427     10430
     10427     10430     10433     10434     10427     10430     10433     10435
     10427     10430     10433     10436     10428     10427     10430     10431
     10428     10427     10430     10432     10428     10427     10430     10433
     10429     10427     10430     10431     10429     10427     10430     10432
     10429     10427     10430     10433     10430     10433     10436     10437
     10430     10433     10436     10438     10431     10430     10433     10434
     10431     10430     10433     10435     10431     10430     10433     10436
     10432     10430     10433     10434     10432     10430     10433     10435
     10432     10430     10433     10436     10433     10436     10438     10439
     10433     10436     10438     10440     10434     10433     10436     10437
     10434     10433     10436     10438     10435     10433     10436     10437
     10435     10433     10436     10438     10436     10438     10440     10441
     10436     10438     10440     10442     10436     10438     10440     10443
     10437     10436     10438     10439     10437     10436     10438     10440
     10438     10440     10443     10444     10438     10440     10443     10445
     10438     10440     10443     10446     10439     10438     10440     10441
     10439     10438     10440     10442     10439     10438     10440     10443
     10440     10443     10446     10447     10440     10443     10446     10448
     10440     10443     10446     10449     10441     10440     10443     10444
     10441     10440     10443     10445     10441     10440     10443     10446
     10442     10440     10443     10444     10442     10440     10443     10445
     10442     10440     10443     10446     10443     10446     10449     10450
     10443     10446     10449     10451     10443     10446     10449     10452
     10444     10443     10446     10447     10444     10443     10446     10448
     10444     10443     10446     10449     10445     10443     10446     10447
     10445     10443     10446     10448     10445     10443     10446     10449
     10446     10449     10452     10453     10446     10449     10452     10454
     10446     10449     10452     10455     10447     10446     10449     10450
     10447     10446     10449     10451     10447     10446     10449     10452
     10448     10446     10449     10450     10448     10446     10449     10451
     10448     10446     10449     10452     10449     10452     10455     10456
     10449     10452     10455     10457     10449     10452     10455     10458
     10450     10449     10452     10453     10450     10449     10452     10454
     10450     10449     10452     10455     10451     10449     10452     10453
     10451     10449     10452     10454     10451     10449     10452     10455
     10452     10455     10458     10459     10452     10455     10458     10460
     10452     10455     10458     10461     10453     10452     10455     10456
     10453     10452     10455     10457     10453     10452     10455     10458
     10454     10452     10455     10456     10454     10452     10455     10457
     10454     10452     10455     10458     10455     10458     10461     10462
     10455     10458     10461     10463     10455     10458     10461     10464
     10456     10455     10458     10459     10456     10455     10458     10460
     10456     10455     10458     10461     10457     10455     10458     10459
     10457     10455     10458     10460     10457     10455     10458     10461
     10459     10458     10461     10462     10459     10458     10461     10463
     10459     10458     10461     10464     10460     10458     10461     10462
     10460     10458     10461     10463     10460     10458     10461     10464
     10465     10468     10471     10472     10465     10468     10471     10473
     10465     10468     10471     10474     10466     10465     10468     10469
     10466     10465     10468     10470     10466     10465     10468     10471
     10467     10465     10468     10469     10467     10465     10468     10470
     10467     10465     10468     10471     10468     10471     10474     10475
     10468     10471     10474     10476     10468     10471     10474     10477
     10469     10468     10471     10472     10469     10468     10471     10473
     10469     10468     10471     10474     10470     10468     10471     10472
     10470     10468     10471     10473     10470     10468     10471     10474
     10471     10474     10477     10478     10471     10474     10477     10479
     10471     10474     10477     10480     10472     10471     10474     10475
     10472     10471     10474     10476     10472     10471     10474     10477
     10473     10471     10474     10475     10473     10471     10474     10476
     10473     10471     10474     10477     10474     10477     10480     10481
     10474     10477     10480     10482     10474     10477     10480     10483
     10475     10474     10477     10478     10475     10474     10477     10479
     10475     10474     10477     10480     10476     10474     10477     10478
     10476     10474     10477     10479     10476     10474     10477     10480
     10477     10480     10483     10484     10477     10480     10483     10485
     10477     10480     10483     10486     10478     10477     10480     10481
     10478     10477     10480     10482     10478     10477     10480     10483
     10479     10477     10480     10481     10479     10477     10480     10482
     10479     10477     10480     10483     10480     10483     10486     10487
     10480     10483     10486     10488     10480     10483     10486     10489
     10481     10480     10483     10484     10481     10480     10483     10485
     10481     10480     10483     10486     10482     10480     10483     10484
     10482     10480     10483     10485     10482     10480     10483     10486
     10483     10486     10489     10490     10483     10486     10489     10491
     10483     10486     10489     10492     10484     10483     10486     10487
     10484     10483     10486     10488     10484     10483     10486     10489
     10485     10483     10486     10487     10485     10483     10486     10488
     10485     10483     10486     10489     10486     10489     10492     10493
     10486     10489     10492     10494     10486     10489     10492     10495
     10487     10486     10489     10490     10487     10486     10489     10491
     10487     10486     10489     10492     10488     10486     10489     10490
     10488     10486     10489     10491     10488     10486     10489     10492
     10489     10492     10495     10496     10489     10492     10495     10497
     10489     10492     10495     10498     10490     10489     10492     10493
     10490     10489     10492     10494     10490     10489     10492     10495
     10491     10489     10492     10493     10491     10489     10492     10494
     10491     10489     10492     10495     10492     10495     10498     10499
     10492     10495     10498     10500     10492     10495     10498     10501
     10493     10492     10495     10496     10493     10492     10495     10497
     10493     10492     10495     10498     10494     10492     10495     10496
     10494     10492     10495     10497     10494     10492     10495     10498
     10495     10498     10501     10502     10495     10498     10501     10503
     10495     10498     10501     10504     10496     10495     10498     10499
     10496     10495     10498     10500     10496     10495     10498     10501
     10497     10495     10498     10499     10497     10495     10498     10500
     10497     10495     10498     10501     10498     10501     10504     10505
     10498     10501     10504     10506     10498     10501     10504     10507
     10499     10498     10501     10502     10499     10498     10501     10503
     10499     10498     10501     10504     10500     10498     10501     10502
     10500     10498     10501     10503     10500     10498     10501     10504
     10502     10501     10504     10505     10502     10501     10504     10506
     10502     10501     10504     10507     10503     10501     10504     10505
     10503     10501     10504     10506     10503     10501     10504     10507
     10508     10512     10515     10516     10508     10512     10515     10517
     10508     10512     10515     10522     10509     10508     10512     10513
     10509     10508     10512     10514     10509     10508     10512     10515
     10510     10508     10512     10513     10510     10508     10512     10514
     10510     10508     10512     10515     10511     10508     10512     10513
     10511     10508     10512     10514     10511     10508     10512     10515
     10512     10515     10522     10518     10513     10512     10515     10516
     10513     10512     10515     10517     10513     10512     10515     10522
     10514     10512     10515     10516     10514     10512     10515     10517
     10514     10512     10515     10522     10515     10522     10518     10519
     10515     10522     10518     10520     10515     10522     10518     10521
     10516     10515     10522     10518     10517     10515     10522     10518
     10518     10521     10523     10524     10518     10521     10523     10525
     10518     10521     10523     10526     10519     10518     10521     10523
     10520     10518     10521     10523     10521     10523     10526     10527
     10521     10523     10526     10528     10521     10523     10526     10534
     10522     10518     10521     10523     10523     10526     10528     10529
     10523     10526     10534     10535     10523     10526     10534     10536
     10523     10526     10534     10537     10524     10523     10526     10527
     10524     10523     10526     10528     10524     10523     10526     10534
     10525     10523     10526     10527     10525     10523     10526     10528
     10525     10523     10526     10534     10526     10528     10529     10530
     10526     10528     10529     10531     10526     10534     10537     10538
     10527     10526     10528     10529     10527     10526     10534     10535
     10527     10526     10534     10536     10527     10526     10534     10537
     10528     10526     10534     10535     10528     10526     10534     10536
     10528     10526     10534     10537     10528     10529     10531     10532
     10528     10529     10531     10533     10528     10529     10531     10543
     10529     10528     10526     10534     10529     10531     10543     10544
     10529     10531     10543     10545     10529     10531     10543     10546
     10530     10529     10531     10532     10530     10529     10531     10533
     10530     10529     10531     10543     10531     10543     10546     10547
     10531     10543     10546     10548     10531     10543     10546     10549
     10532     10531     10543     10544     10532     10531     10543     10545
     10532     10531     10543     10546     10533     10531     10543     10544
     10533     10531     10543     10545     10533     10531     10543     10546
     10534     10537     10538     10539     10534     10537     10538     10540
     10535     10534     10537     10538     10536     10534     10537     10538
     10537     10538     10540     10541     10537     10538     10540     10542
     10537     10538     10540     10587     10538     10540     10587     10588
     10538     10540     10587     10589     10538     10540     10587     10590
     10539     10538     10540     10541     10539     10538     10540     10542
     10539     10538     10540     10587     10540     10587     10590     10591
     10540     10587     10590     10592     10540     10587     10590     10593
     10541     10540     10587     10588     10541     10540     10587     10589
     10541     10540     10587     10590     10542     10540     10587     10588
     10542     10540     10587     10589     10542     10540     10587     10590
     10543     10546     10549     10550     10543     10546     10549     10551
     10543     10546     10549     10552     10544     10543     10546     10547
     10544     10543     10546     10548     10544     10543     10546     10549
     10545     10543     10546     10547     10545     10543     10546     10548
     10545     10543     10546     10549     10546     10549     10552     10553
     10546     10549     10552     10554     10546     10549     10552     10555
     10547     10546     10549     10550     10547     10546     10549     10551
     10547     10546     10549     10552     10548     10546     10549     10550
     10548     10546     10549     10551     10548     10546     10549     10552
     10549     10552     10555     10556     10549     10552     10555     10557
     10549     10552     10555     10558     10550     10549     10552     10553
     10550     10549     10552     10554     10550     10549     10552     10555
     10551     10549     10552     10553     10551     10549     10552     10554
     10551     10549     10552     10555     10552     10555     10558     10559
     10552     10555     10558     10560     10552     10555     10558     10561
     10553     10552     10555     10556     10553     10552     10555     10557
     10553     10552     10555     10558     10554     10552     10555     10556
     10554     10552     10555     10557     10554     10552     10555     10558
     10555     10558     10561     10562     10555     10558     10561     10563
     10555     10558     10561     10566     10556     10555     10558     10559
     10556     10555     10558     10560     10556     10555     10558     10561
     10557     10555     10558     10559     10557     10555     10558     10560
     10557     10555     10558     10561     10558     10561     10563     10564
     10558     10561     10563     10565     10558     10561     10563     10566
     10558     10561     10566     10563     10558     10561     10566     10567
     10558     10561     10566     10568     10559     10558     10561     10562
     10559     10558     10561     10563     10559     10558     10561     10566
     10560     10558     10561     10562     10560     10558     10561     10563
     10560     10558     10561     10566     10561     10563     10566     10567
     10561     10563     10566     10568     10561     10566     10563     10564
     10561     10566     10563     10565     10561     10566     10568     10569
     10561     10566     10568     10570     10561     10566     10568     10571
     10562     10561     10563     10564     10562     10561     10563     10565
     10562     10561     10563     10566     10562     10561     10566     10563
     10562     10561     10566     10567     10562     10561     10566     10568
     10563     10561     10566     10567     10563     10561     10566     10568
     10563     10566     10568     10569     10563     10566     10568     10570
     10563     10566     10568     10571     10564     10563     10561     10566
     10564     10563     10566     10567     10564     10563     10566     10568
     10565     10563     10561     10566     10565     10563     10566     10567
     10565     10563     10566     10568     10566     10568     10571     10572
     10566     10568     10571     10573     10566     10568     10571     10574
     10567     10566     10568     10569     10567     10566     10568     10570
     10567     10566     10568     10571     10568     10571     10574     10575
     10568     10571     10574     10576     10568     10571     10574     10577
     10569     10568     10571     10572     10569     10568     10571     10573
     10569     10568     10571     10574     10570     10568     10571     10572
     10570     10568     10571     10573     10570     10568     10571     10574
     10571     10574     10577     10578     10571     10574     10577     10579
     10571     10574     10577     10580     10572     10571     10574     10575
     10572     10571     10574     10576     10572     10571     10574     10577
     10573     10571     10574     10575     10573     10571     10574     10576
     10573     10571     10574     10577     10574     10577     10580     10581
     10574     10577     10580     10582     10574     10577     10580     10583
     10575     10574     10577     10578     10575     10574     10577     10579
     10575     10574     10577     10580     10576     10574     10577     10578
     10576     10574     10577     10579     10576     10574     10577     10580
     10577     10580     10583     10584     10577     10580     10583     10585
     10577     10580     10583     10586     10578     10577     10580     10581
     10578     10577     10580     10582     10578     10577     10580     10583
     10579     10577     10580     10581     10579     10577     10580     10582
     10579     10577     10580     10583     10581     10580     10583     10584
     10581     10580     10583     10585     10581     10580     10583     10586
     10582     10580     10583     10584     10582     10580     10583     10585
     10582     10580     10583     10586     10587     10590     10593     10594
     10587     10590     10593     10595     10587     10590     10593     10596
     10588     10587     10590     10591     10588     10587     10590     10592
     10588     10587     10590     10593     10589     10587     10590     10591
     10589     10587     10590     10592     10589     10587     10590     10593
     10590     10593     10596     10597     10590     10593     10596     10598
     10590     10593     10596     10599     10591     10590     10593     10594
     10591     10590     10593     10595     10591     10590     10593     10596
     10592     10590     10593     10594     10592     10590     10593     10595
     10592     10590     10593     10596     10593     10596     10599     10600
     10593     10596     10599     10601     10593     10596     10599     10602
     10594     10593     10596     10597     10594     10593     10596     10598
     10594     10593     10596     10599     10595     10593     10596     10597
     10595     10593     10596     10598     10595     10593     10596     10599
     10596     10599     10602     10603     10596     10599     10602     10604
     10596     10599     10602     10605     10597     10596     10599     10600
     10597     10596     10599     10601     10597     10596     10599     10602
     10598     10596     10599     10600     10598     10596     10599     10601
     10598     10596     10599     10602     10599     10602     10605     10606
     10599     10602     10605     10607     10599     10602     10605     10608
     10600     10599     10602     10603     10600     10599     10602     10604
     10600     10599     10602     10605     10601     10599     10602     10603
     10601     10599     10602     10604     10601     10599     10602     10605
     10602     10605     10608     10609     10602     10605     10608     10610
     10602     10605     10608     10611     10603     10602     10605     10606
     10603     10602     10605     10607     10603     10602     10605     10608
     10604     10602     10605     10606     10604     10602     10605     10607
     10604     10602     10605     10608     10605     10608     10611     10612
     10605     10608     10611     10613     10605     10608     10611     10614
     10606     10605     10608     10609     10606     10605     10608     10610
     10606     10605     10608     10611     10607     10605     10608     10609
     10607     10605     10608     10610     10607     10605     10608     10611
     10608     10611     10614     10615     10608     10611     10614     10616
     10608     10611     10614     10617     10609     10608     10611     10612
     10609     10608     10611     10613     10609     10608     10611     10614
     10610     10608     10611     10612     10610     10608     10611     10613
     10610     10608     10611     10614     10611     10614     10617     10618
     10611     10614     10617     10619     10611     10614     10617     10620
     10612     10611     10614     10615     10612     10611     10614     10616
     10612     10611     10614     10617     10613     10611     10614     10615
     10613     10611     10614     10616     10613     10611     10614     10617
     10614     10617     10620     10621     10614     10617     10620     10622
     10614     10617     10620     10623     10615     10614     10617     10618
     10615     10614     10617     10619     10615     10614     10617     10620
     10616     10614     10617     10618     10616     10614     10617     10619
     10616     10614     10617     10620     10617     10620     10623     10624
     10617     10620     10623     10625     10617     10620     10623     10626
     10618     10617     10620     10621     10618     10617     10620     10622
     10618     10617     10620     10623     10619     10617     10620     10621
     10619     10617     10620     10622     10619     10617     10620     10623
     10621     10620     10623     10624     10621     10620     10623     10625
     10621     10620     10623     10626     10622     10620     10623     10624
     10622     10620     10623     10625     10622     10620     10623     10626
     10627     10631     10634     10635     10627     10631     10634     10636
     10627     10631     10634     10641     10628     10627     10631     10632
     10628     10627     10631     10633     10628     10627     10631     10634
     10629     10627     10631     10632     10629     10627     10631     10633
     10629     10627     10631     10634     10630     10627     10631     10632
     10630     10627     10631     10633     10630     10627     10631     10634
     10631     10634     10641     10637     10632     10631     10634     10635
     10632     10631     10634     10636     10632     10631     10634     10641
     10633     10631     10634     10635     10633     10631     10634     10636
     10633     10631     10634     10641     10634     10641     10637     10638
     10634     10641     10637     10639     10634     10641     10637     10640
     10635     10634     10641     10637     10636     10634     10641     10637
     10637     10640     10642     10643     10637     10640     10642     10644
     10637     10640     10642     10645     10638     10637     10640     10642
     10639     10637     10640     10642     10640     10642     10645     10646
     10640     10642     10645     10647     10640     10642     10645     10653
     10641     10637     10640     10642     10642     10645     10647     10648
     10642     10645     10653     10654     10642     10645     10653     10655
     10642     10645     10653     10656     10643     10642     10645     10646
     10643     10642     10645     10647     10643     10642     10645     10653
     10644     10642     10645     10646     10644     10642     10645     10647
     10644     10642     10645     10653     10645     10647     10648     10649
     10645     10647     10648     10650     10645     10653     10656     10657
     10646     10645     10647     10648     10646     10645     10653     10654
     10646     10645     10653     10655     10646     10645     10653     10656
     10647     10645     10653     10654     10647     10645     10653     10655
     10647     10645     10653     10656     10647     10648     10650     10651
     10647     10648     10650     10652     10647     10648     10650     10662
     10648     10647     10645     10653     10648     10650     10662     10663
     10648     10650     10662     10664     10648     10650     10662     10665
     10649     10648     10650     10651     10649     10648     10650     10652
     10649     10648     10650     10662     10650     10662     10665     10666
     10650     10662     10665     10667     10650     10662     10665     10668
     10651     10650     10662     10663     10651     10650     10662     10664
     10651     10650     10662     10665     10652     10650     10662     10663
     10652     10650     10662     10664     10652     10650     10662     10665
     10653     10656     10657     10658     10653     10656     10657     10659
     10654     10653     10656     10657     10655     10653     10656     10657
     10656     10657     10659     10660     10656     10657     10659     10661
     10656     10657     10659     10706     10657     10659     10706     10707
     10657     10659     10706     10708     10657     10659     10706     10709
     10658     10657     10659     10660     10658     10657     10659     10661
     10658     10657     10659     10706     10659     10706     10709     10710
     10659     10706     10709     10711     10659     10706     10709     10712
     10660     10659     10706     10707     10660     10659     10706     10708
     10660     10659     10706     10709     10661     10659     10706     10707
     10661     10659     10706     10708     10661     10659     10706     10709
     10662     10665     10668     10669     10662     10665     10668     10670
     10662     10665     10668     10671     10663     10662     10665     10666
     10663     10662     10665     10667     10663     10662     10665     10668
     10664     10662     10665     10666     10664     10662     10665     10667
     10664     10662     10665     10668     10665     10668     10671     10672
     10665     10668     10671     10673     10665     10668     10671     10674
     10666     10665     10668     10669     10666     10665     10668     10670
     10666     10665     10668     10671     10667     10665     10668     10669
     10667     10665     10668     10670     10667     10665     10668     10671
     10668     10671     10674     10675     10668     10671     10674     10676
     10668     10671     10674     10677     10669     10668     10671     10672
     10669     10668     10671     10673     10669     10668     10671     10674
     10670     10668     10671     10672     10670     10668     10671     10673
     10670     10668     10671     10674     10671     10674     10677     10678
     10671     10674     10677     10679     10671     10674     10677     10680
     10672     10671     10674     10675     10672     10671     10674     10676
     10672     10671     10674     10677     10673     10671     10674     10675
     10673     10671     10674     10676     10673     10671     10674     10677
     10674     10677     10680     10681     10674     10677     10680     10682
     10674     10677     10680     10685     10675     10674     10677     10678
     10675     10674     10677     10679     10675     10674     10677     10680
     10676     10674     10677     10678     10676     10674     10677     10679
     10676     10674     10677     10680     10677     10680     10682     10683
     10677     10680     10682     10684     10677     10680     10682     10685
     10677     10680     10685     10682     10677     10680     10685     10686
     10677     10680     10685     10687     10678     10677     10680     10681
     10678     10677     10680     10682     10678     10677     10680     10685
     10679     10677     10680     10681     10679     10677     10680     10682
     10679     10677     10680     10685     10680     10682     10685     10686
     10680     10682     10685     10687     10680     10685     10682     10683
     10680     10685     10682     10684     10680     10685     10687     10688
     10680     10685     10687     10689     10680     10685     10687     10690
     10681     10680     10682     10683     10681     10680     10682     10684
     10681     10680     10682     10685     10681     10680     10685     10682
     10681     10680     10685     10686     10681     10680     10685     10687
     10682     10680     10685     10686     10682     10680     10685     10687
     10682     10685     10687     10688     10682     10685     10687     10689
     10682     10685     10687     10690     10683     10682     10680     10685
     10683     10682     10685     10686     10683     10682     10685     10687
     10684     10682     10680     10685     10684     10682     10685     10686
     10684     10682     10685     10687     10685     10687     10690     10691
     10685     10687     10690     10692     10685     10687     10690     10693
     10686     10685     10687     10688     10686     10685     10687     10689
     10686     10685     10687     10690     10687     10690     10693     10694
     10687     10690     10693     10695     10687     10690     10693     10696
     10688     10687     10690     10691     10688     10687     10690     10692
     10688     10687     10690     10693     10689     10687     10690     10691
     10689     10687     10690     10692     10689     10687     10690     10693
     10690     10693     10696     10697     10690     10693     10696     10698
     10690     10693     10696     10699     10691     10690     10693     10694
     10691     10690     10693     10695     10691     10690     10693     10696
     10692     10690     10693     10694     10692     10690     10693     10695
     10692     10690     10693     10696     10693     10696     10699     10700
     10693     10696     10699     10701     10693     10696     10699     10702
     10694     10693     10696     10697     10694     10693     10696     10698
     10694     10693     10696     10699     10695     10693     10696     10697
     10695     10693     10696     10698     10695     10693     10696     10699
     10696     10699     10702     10703     10696     10699     10702     10704
     10696     10699     10702     10705     10697     10696     10699     10700
     10697     10696     10699     10701     10697     10696     10699     10702
     10698     10696     10699     10700     10698     10696     10699     10701
     10698     10696     10699     10702     10700     10699     10702     10703
     10700     10699     10702     10704     10700     10699     10702     10705
     10701     10699     10702     10703     10701     10699     10702     10704
     10701     10699     10702     10705     10706     10709     10712     10713
     10706     10709     10712     10714     10706     10709     10712     10715
     10707     10706     10709     10710     10707     10706     10709     10711
     10707     10706     10709     10712     10708     10706     10709     10710
     10708     10706     10709     10711     10708     10706     10709     10712
     10709     10712     10715     10716     10709     10712     10715     10717
     10709     10712     10715     10718     10710     10709     10712     10713
     10710     10709     10712     10714     10710     10709     10712     10715
     10711     10709     10712     10713     10711     10709     10712     10714
     10711     10709     10712     10715     10712     10715     10718     10719
     10712     10715     10718     10720     10712     10715     10718     10721
     10713     10712     10715     10716     10713     10712     10715     10717
     10713     10712     10715     10718     10714     10712     10715     10716
     10714     10712     10715     10717     10714     10712     10715     10718
     10715     10718     10721     10722     10715     10718     10721     10723
     10715     10718     10721     10724     10716     10715     10718     10719
     10716     10715     10718     10720     10716     10715     10718     10721
     10717     10715     10718     10719     10717     10715     10718     10720
     10717     10715     10718     10721     10718     10721     10724     10725
     10718     10721     10724     10726     10718     10721     10724     10727
     10719     10718     10721     10722     10719     10718     10721     10723
     10719     10718     10721     10724     10720     10718     10721     10722
     10720     10718     10721     10723     10720     10718     10721     10724
     10721     10724     10727     10728     10721     10724     10727     10729
     10721     10724     10727     10730     10722     10721     10724     10725
     10722     10721     10724     10726     10722     10721     10724     10727
     10723     10721     10724     10725     10723     10721     10724     10726
     10723     10721     10724     10727     10724     10727     10730     10731
     10724     10727     10730     10732     10724     10727     10730     10733
     10725     10724     10727     10728     10725     10724     10727     10729
     10725     10724     10727     10730     10726     10724     10727     10728
     10726     10724     10727     10729     10726     10724     10727     10730
     10727     10730     10733     10734     10727     10730     10733     10735
     10727     10730     10733     10736     10728     10727     10730     10731
     10728     10727     10730     10732     10728     10727     10730     10733
     10729     10727     10730     10731     10729     10727     10730     10732
     10729     10727     10730     10733     10730     10733     10736     10737
     10730     10733     10736     10738     10730     10733     10736     10739
     10731     10730     10733     10734     10731     10730     10733     10735
     10731     10730     10733     10736     10732     10730     10733     10734
     10732     10730     10733     10735     10732     10730     10733     10736
     10733     10736     10739     10740     10733     10736     10739     10741
     10733     10736     10739     10742     10734     10733     10736     10737
     10734     10733     10736     10738     10734     10733     10736     10739
     10735     10733     10736     10737     10735     10733     10736     10738
     10735     10733     10736     10739     10736     10739     10742     10743
     10736     10739     10742     10744     10736     10739     10742     10745
     10737     10736     10739     10740     10737     10736     10739     10741
     10737     10736     10739     10742     10738     10736     10739     10740
     10738     10736     10739     10741     10738     10736     10739     10742
     10739     10742     10745     10746     10739     10742     10745     10747
     10739     10742     10745     10748     10740     10739     10742     10743
     10740     10739     10742     10744     10740     10739     10742     10745
     10741     10739     10742     10743     10741     10739     10742     10744
     10741     10739     10742     10745     10743     10742     10745     10746
     10743     10742     10745     10747     10743     10742     10745     10748
     10744     10742     10745     10746     10744     10742     10745     10747
     10744     10742     10745     10748     10749     10753     10756     10757
     10749     10753     10756     10758     10749     10753     10756     10763
     10750     10749     10753     10754     10750     10749     10753     10755
     10750     10749     10753     10756     10751     10749     10753     10754
     10751     10749     10753     10755     10751     10749     10753     10756
     10752     10749     10753     10754     10752     10749     10753     10755
     10752     10749     10753     10756     10753     10756     10763     10759
     10754     10753     10756     10757     10754     10753     10756     10758
     10754     10753     10756     10763     10755     10753     10756     10757
     10755     10753     10756     10758     10755     10753     10756     10763
     10756     10763     10759     10760     10756     10763     10759     10761
     10756     10763     10759     10762     10757     10756     10763     10759
     10758     10756     10763     10759     10759     10762     10764     10765
     10759     10762     10764     10766     10759     10762     10764     10767
     10760     10759     10762     10764     10761     10759     10762     10764
     10762     10764     10767     10768     10762     10764     10767     10769
     10762     10764     10767     10775     10763     10759     10762     10764
     10764     10767     10769     10770     10764     10767     10775     10776
     10764     10767     10775     10777     10764     10767     10775     10778
     10765     10764     10767     10768     10765     10764     10767     10769
     10765     10764     10767     10775     10766     10764     10767     10768
     10766     10764     10767     10769     10766     10764     10767     10775
     10767     10769     10770     10771     10767     10769     10770     10772
     10767     10775     10778     10779     10768     10767     10769     10770
     10768     10767     10775     10776     10768     10767     10775     10777
     10768     10767     10775     10778     10769     10767     10775     10776
     10769     10767     10775     10777     10769     10767     10775     10778
     10769     10770     10772     10773     10769     10770     10772     10774
     10769     10770     10772     10784     10770     10769     10767     10775
     10770     10772     10784     10785     10770     10772     10784     10786
     10770     10772     10784     10787     10771     10770     10772     10773
     10771     10770     10772     10774     10771     10770     10772     10784
     10772     10784     10787     10788     10772     10784     10787     10789
     10772     10784     10787     10790     10773     10772     10784     10785
     10773     10772     10784     10786     10773     10772     10784     10787
     10774     10772     10784     10785     10774     10772     10784     10786
     10774     10772     10784     10787     10775     10778     10779     10780
     10775     10778     10779     10781     10776     10775     10778     10779
     10777     10775     10778     10779     10778     10779     10781     10782
     10778     10779     10781     10783     10778     10779     10781     10828
     10779     10781     10828     10829     10779     10781     10828     10830
     10779     10781     10828     10831     10780     10779     10781     10782
     10780     10779     10781     10783     10780     10779     10781     10828
     10781     10828     10831     10832     10781     10828     10831     10833
     10781     10828     10831     10834     10782     10781     10828     10829
     10782     10781     10828     10830     10782     10781     10828     10831
     10783     10781     10828     10829     10783     10781     10828     10830
     10783     10781     10828     10831     10784     10787     10790     10791
     10784     10787     10790     10792     10784     10787     10790     10793
     10785     10784     10787     10788     10785     10784     10787     10789
     10785     10784     10787     10790     10786     10784     10787     10788
     10786     10784     10787     10789     10786     10784     10787     10790
     10787     10790     10793     10794     10787     10790     10793     10795
     10787     10790     10793     10796     10788     10787     10790     10791
     10788     10787     10790     10792     10788     10787     10790     10793
     10789     10787     10790     10791     10789     10787     10790     10792
     10789     10787     10790     10793     10790     10793     10796     10797
     10790     10793     10796     10798     10790     10793     10796     10799
     10791     10790     10793     10794     10791     10790     10793     10795
     10791     10790     10793     10796     10792     10790     10793     10794
     10792     10790     10793     10795     10792     10790     10793     10796
     10793     10796     10799     10800     10793     10796     10799     10801
     10793     10796     10799     10802     10794     10793     10796     10797
     10794     10793     10796     10798     10794     10793     10796     10799
     10795     10793     10796     10797     10795     10793     10796     10798
     10795     10793     10796     10799     10796     10799     10802     10803
     10796     10799     10802     10804     10796     10799     10802     10807
     10797     10796     10799     10800     10797     10796     10799     10801
     10797     10796     10799     10802     10798     10796     10799     10800
     10798     10796     10799     10801     10798     10796     10799     10802
     10799     10802     10804     10805     10799     10802     10804     10806
     10799     10802     10804     10807     10799     10802     10807     10804
     10799     10802     10807     10808     10799     10802     10807     10809
     10800     10799     10802     10803     10800     10799     10802     10804
     10800     10799     10802     10807     10801     10799     10802     10803
     10801     10799     10802     10804     10801     10799     10802     10807
     10802     10804     10807     10808     10802     10804     10807     10809
     10802     10807     10804     10805     10802     10807     10804     10806
     10802     10807     10809     10810     10802     10807     10809     10811
     10802     10807     10809     10812     10803     10802     10804     10805
     10803     10802     10804     10806     10803     10802     10804     10807
     10803     10802     10807     10804     10803     10802     10807     10808
     10803     10802     10807     10809     10804     10802     10807     10808
     10804     10802     10807     10809     10804     10807     10809     10810
     10804     10807     10809     10811     10804     10807     10809     10812
     10805     10804     10802     10807     10805     10804     10807     10808
     10805     10804     10807     10809     10806     10804     10802     10807
     10806     10804     10807     10808     10806     10804     10807     10809
     10807     10809     10812     10813     10807     10809     10812     10814
     10807     10809     10812     10815     10808     10807     10809     10810
     10808     10807     10809     10811     10808     10807     10809     10812
     10809     10812     10815     10816     10809     10812     10815     10817
     10809     10812     10815     10818     10810     10809     10812     10813
     10810     10809     10812     10814     10810     10809     10812     10815
     10811     10809     10812     10813     10811     10809     10812     10814
     10811     10809     10812     10815     10812     10815     10818     10819
     10812     10815     10818     10820     10812     10815     10818     10821
     10813     10812     10815     10816     10813     10812     10815     10817
     10813     10812     10815     10818     10814     10812     10815     10816
     10814     10812     10815     10817     10814     10812     10815     10818
     10815     10818     10821     10822     10815     10818     10821     10823
     10815     10818     10821     10824     10816     10815     10818     10819
     10816     10815     10818     10820     10816     10815     10818     10821
     10817     10815     10818     10819     10817     10815     10818     10820
     10817     10815     10818     10821     10818     10821     10824     10825
     10818     10821     10824     10826     10818     10821     10824     10827
     10819     10818     10821     10822     10819     10818     10821     10823
     10819     10818     10821     10824     10820     10818     10821     10822
     10820     10818     10821     10823     10820     10818     10821     10824
     10822     10821     10824     10825     10822     10821     10824     10826
     10822     10821     10824     10827     10823     10821     10824     10825
     10823     10821     10824     10826     10823     10821     10824     10827
     10828     10831     10834     10835     10828     10831     10834     10836
     10828     10831     10834     10837     10829     10828     10831     10832
     10829     10828     10831     10833     10829     10828     10831     10834
     10830     10828     10831     10832     10830     10828     10831     10833
     10830     10828     10831     10834     10831     10834     10837     10838
     10831     10834     10837     10839     10831     10834     10837     10840
     10832     10831     10834     10835     10832     10831     10834     10836
     10832     10831     10834     10837     10833     10831     10834     10835
     10833     10831     10834     10836     10833     10831     10834     10837
     10834     10837     10840     10841     10834     10837     10840     10842
     10834     10837     10840     10843     10835     10834     10837     10838
     10835     10834     10837     10839     10835     10834     10837     10840
     10836     10834     10837     10838     10836     10834     10837     10839
     10836     10834     10837     10840     10837     10840     10843     10844
     10837     10840     10843     10845     10837     10840     10843     10846
     10838     10837     10840     10841     10838     10837     10840     10842
     10838     10837     10840     10843     10839     10837     10840     10841
     10839     10837     10840     10842     10839     10837     10840     10843
     10840     10843     10846     10847     10840     10843     10846     10848
     10840     10843     10846     10849     10841     10840     10843     10844
     10841     10840     10843     10845     10841     10840     10843     10846
     10842     10840     10843     10844     10842     10840     10843     10845
     10842     10840     10843     10846     10843     10846     10849     10850
     10843     10846     10849     10851     10843     10846     10849     10852
     10844     10843     10846     10847     10844     10843     10846     10848
     10844     10843     10846     10849     10845     10843     10846     10847
     10845     10843     10846     10848     10845     10843     10846     10849
     10846     10849     10852     10853     10846     10849     10852     10854
     10846     10849     10852     10855     10847     10846     10849     10850
     10847     10846     10849     10851     10847     10846     10849     10852
     10848     10846     10849     10850     10848     10846     10849     10851
     10848     10846     10849     10852     10849     10852     10855     10856
     10849     10852     10855     10857     10849     10852     10855     10858
     10850     10849     10852     10853     10850     10849     10852     10854
     10850     10849     10852     10855     10851     10849     10852     10853
     10851     10849     10852     10854     10851     10849     10852     10855
     10852     10855     10858     10859     10852     10855     10858     10860
     10852     10855     10858     10861     10853     10852     10855     10856
     10853     10852     10855     10857     10853     10852     10855     10858
     10854     10852     10855     10856     10854     10852     10855     10857
     10854     10852     10855     10858     10855     10858     10861     10862
     10855     10858     10861     10863     10855     10858     10861     10864
     10856     10855     10858     10859     10856     10855     10858     10860
     10856     10855     10858     10861     10857     10855     10858     10859
     10857     10855     10858     10860     10857     10855     10858     10861
     10858     10861     10864     10865     10858     10861     10864     10866
     10858     10861     10864     10867     10859     10858     10861     10862
     10859     10858     10861     10863     10859     10858     10861     10864
     10860     10858     10861     10862     10860     10858     10861     10863
     10860     10858     10861     10864     10861     10864     10867     10868
     10861     10864     10867     10869     10861     10864     10867     10870
     10862     10861     10864     10865     10862     10861     10864     10866
     10862     10861     10864     10867     10863     10861     10864     10865
     10863     10861     10864     10866     10863     10861     10864     10867
     10865     10864     10867     10868     10865     10864     10867     10869
     10865     10864     10867     10870     10866     10864     10867     10868
     10866     10864     10867     10869     10866     10864     10867     10870
     10871     10875     10878     10879     10871     10875     10878     10880
     10871     10875     10878     10885     10872     10871     10875     10876
     10872     10871     10875     10877     10872     10871     10875     10878
     10873     10871     10875     10876     10873     10871     10875     10877
     10873     10871     10875     10878     10874     10871     10875     10876
     10874     10871     10875     10877     10874     10871     10875     10878
     10875     10878     10885     10881     10876     10875     10878     10879
     10876     10875     10878     10880     10876     10875     10878     10885
     10877     10875     10878     10879     10877     10875     10878     10880
     10877     10875     10878     10885     10878     10885     10881     10882
     10878     10885     10881     10883     10878     10885     10881     10884
     10879     10878     10885     10881     10880     10878     10885     10881
     10881     10884     10886     10887     10881     10884     10886     10888
     10881     10884     10886     10889     10882     10881     10884     10886
     10883     10881     10884     10886     10884     10886     10889     10890
     10884     10886     10889     10891     10884     10886     10889     10897
     10885     10881     10884     10886     10886     10889     10891     10892
     10886     10889     10897     10898     10886     10889     10897     10899
     10886     10889     10897     10900     10887     10886     10889     10890
     10887     10886     10889     10891     10887     10886     10889     10897
     10888     10886     10889     10890     10888     10886     10889     10891
     10888     10886     10889     10897     10889     10891     10892     10893
     10889     10891     10892     10894     10889     10897     10900     10901
     10890     10889     10891     10892     10890     10889     10897     10898
     10890     10889     10897     10899     10890     10889     10897     10900
     10891     10889     10897     10898     10891     10889     10897     10899
     10891     10889     10897     10900     10891     10892     10894     10895
     10891     10892     10894     10896     10891     10892     10894     10906
     10892     10891     10889     10897     10892     10894     10906     10907
     10892     10894     10906     10908     10892     10894     10906     10909
     10893     10892     10894     10895     10893     10892     10894     10896
     10893     10892     10894     10906     10894     10906     10909     10910
     10894     10906     10909     10911     10894     10906     10909     10912
     10895     10894     10906     10907     10895     10894     10906     10908
     10895     10894     10906     10909     10896     10894     10906     10907
     10896     10894     10906     10908     10896     10894     10906     10909
     10897     10900     10901     10902     10897     10900     10901     10903
     10898     10897     10900     10901     10899     10897     10900     10901
     10900     10901     10903     10904     10900     10901     10903     10905
     10900     10901     10903     10950     10901     10903     10950     10951
     10901     10903     10950     10952     10901     10903     10950     10953
     10902     10901     10903     10904     10902     10901     10903     10905
     10902     10901     10903     10950     10903     10950     10953     10954
     10903     10950     10953     10955     10903     10950     10953     10956
     10904     10903     10950     10951     10904     10903     10950     10952
     10904     10903     10950     10953     10905     10903     10950     10951
     10905     10903     10950     10952     10905     10903     10950     10953
     10906     10909     10912     10913     10906     10909     10912     10914
     10906     10909     10912     10915     10907     10906     10909     10910
     10907     10906     10909     10911     10907     10906     10909     10912
     10908     10906     10909     10910     10908     10906     10909     10911
     10908     10906     10909     10912     10909     10912     10915     10916
     10909     10912     10915     10917     10909     10912     10915     10918
     10910     10909     10912     10913     10910     10909     10912     10914
     10910     10909     10912     10915     10911     10909     10912     10913
     10911     10909     10912     10914     10911     10909     10912     10915
     10912     10915     10918     10919     10912     10915     10918     10920
     10912     10915     10918     10921     10913     10912     10915     10916
     10913     10912     10915     10917     10913     10912     10915     10918
     10914     10912     10915     10916     10914     10912     10915     10917
     10914     10912     10915     10918     10915     10918     10921     10922
     10915     10918     10921     10923     10915     10918     10921     10924
     10916     10915     10918     10919     10916     10915     10918     10920
     10916     10915     10918     10921     10917     10915     10918     10919
     10917     10915     10918     10920     10917     10915     10918     10921
     10918     10921     10924     10925     10918     10921     10924     10926
     10918     10921     10924     10929     10919     10918     10921     10922
     10919     10918     10921     10923     10919     10918     10921     10924
     10920     10918     10921     10922     10920     10918     10921     10923
     10920     10918     10921     10924     10921     10924     10926     10927
     10921     10924     10926     10928     10921     10924     10926     10929
     10921     10924     10929     10926     10921     10924     10929     10930
     10921     10924     10929     10931     10922     10921     10924     10925
     10922     10921     10924     10926     10922     10921     10924     10929
     10923     10921     10924     10925     10923     10921     10924     10926
     10923     10921     10924     10929     10924     10926     10929     10930
     10924     10926     10929     10931     10924     10929     10926     10927
     10924     10929     10926     10928     10924     10929     10931     10932
     10924     10929     10931     10933     10924     10929     10931     10934
     10925     10924     10926     10927     10925     10924     10926     10928
     10925     10924     10926     10929     10925     10924     10929     10926
     10925     10924     10929     10930     10925     10924     10929     10931
     10926     10924     10929     10930     10926     10924     10929     10931
     10926     10929     10931     10932     10926     10929     10931     10933
     10926     10929     10931     10934     10927     10926     10924     10929
     10927     10926     10929     10930     10927     10926     10929     10931
     10928     10926     10924     10929     10928     10926     10929     10930
     10928     10926     10929     10931     10929     10931     10934     10935
     10929     10931     10934     10936     10929     10931     10934     10937
     10930     10929     10931     10932     10930     10929     10931     10933
     10930     10929     10931     10934     10931     10934     10937     10938
     10931     10934     10937     10939     10931     10934     10937     10940
     10932     10931     10934     10935     10932     10931     10934     10936
     10932     10931     10934     10937     10933     10931     10934     10935
     10933     10931     10934     10936     10933     10931     10934     10937
     10934     10937     10940     10941     10934     10937     10940     10942
     10934     10937     10940     10943     10935     10934     10937     10938
     10935     10934     10937     10939     10935     10934     10937     10940
     10936     10934     10937     10938     10936     10934     10937     10939
     10936     10934     10937     10940     10937     10940     10943     10944
     10937     10940     10943     10945     10937     10940     10943     10946
     10938     10937     10940     10941     10938     10937     10940     10942
     10938     10937     10940     10943     10939     10937     10940     10941
     10939     10937     10940     10942     10939     10937     10940     10943
     10940     10943     10946     10947     10940     10943     10946     10948
     10940     10943     10946     10949     10941     10940     10943     10944
     10941     10940     10943     10945     10941     10940     10943     10946
     10942     10940     10943     10944     10942     10940     10943     10945
     10942     10940     10943     10946     10944     10943     10946     10947
     10944     10943     10946     10948     10944     10943     10946     10949
     10945     10943     10946     10947     10945     10943     10946     10948
     10945     10943     10946     10949     10950     10953     10956     10957
     10950     10953     10956     10958     10950     10953     10956     10959
     10951     10950     10953     10954     10951     10950     10953     10955
     10951     10950     10953     10956     10952     10950     10953     10954
     10952     10950     10953     10955     10952     10950     10953     10956
     10953     10956     10959     10960     10953     10956     10959     10961
     10953     10956     10959     10962     10954     10953     10956     10957
     10954     10953     10956     10958     10954     10953     10956     10959
     10955     10953     10956     10957     10955     10953     10956     10958
     10955     10953     10956     10959     10956     10959     10962     10963
     10956     10959     10962     10964     10956     10959     10962     10965
     10957     10956     10959     10960     10957     10956     10959     10961
     10957     10956     10959     10962     10958     10956     10959     10960
     10958     10956     10959     10961     10958     10956     10959     10962
     10959     10962     10965     10966     10959     10962     10965     10967
     10959     10962     10965     10968     10960     10959     10962     10963
     10960     10959     10962     10964     10960     10959     10962     10965
     10961     10959     10962     10963     10961     10959     10962     10964
     10961     10959     10962     10965     10962     10965     10968     10969
     10962     10965     10968     10970     10962     10965     10968     10971
     10963     10962     10965     10966     10963     10962     10965     10967
     10963     10962     10965     10968     10964     10962     10965     10966
     10964     10962     10965     10967     10964     10962     10965     10968
     10965     10968     10971     10972     10965     10968     10971     10973
     10965     10968     10971     10974     10966     10965     10968     10969
     10966     10965     10968     10970     10966     10965     10968     10971
     10967     10965     10968     10969     10967     10965     10968     10970
     10967     10965     10968     10971     10968     10971     10974     10975
     10968     10971     10974     10976     10968     10971     10974     10977
     10969     10968     10971     10972     10969     10968     10971     10973
     10969     10968     10971     10974     10970     10968     10971     10972
     10970     10968     10971     10973     10970     10968     10971     10974
     10971     10974     10977     10978     10971     10974     10977     10979
     10971     10974     10977     10980     10972     10971     10974     10975
     10972     10971     10974     10976     10972     10971     10974     10977
     10973     10971     10974     10975     10973     10971     10974     10976
     10973     10971     10974     10977     10974     10977     10980     10981
     10974     10977     10980     10982     10974     10977     10980     10983
     10975     10974     10977     10978     10975     10974     10977     10979
     10975     10974     10977     10980     10976     10974     10977     10978
     10976     10974     10977     10979     10976     10974     10977     10980
     10977     10980     10983     10984     10977     10980     10983     10985
     10977     10980     10983     10986     10978     10977     10980     10981
     10978     10977     10980     10982     10978     10977     10980     10983
     10979     10977     10980     10981     10979     10977     10980     10982
     10979     10977     10980     10983     10980     10983     10986     10987
     10980     10983     10986     10988     10980     10983     10986     10989
     10981     10980     10983     10984     10981     10980     10983     10985
     10981     10980     10983     10986     10982     10980     10983     10984
     10982     10980     10983     10985     10982     10980     10983     10986
     10983     10986     10989     10990     10983     10986     10989     10991
     10983     10986     10989     10992     10984     10983     10986     10987
     10984     10983     10986     10988     10984     10983     10986     10989
     10985     10983     10986     10987     10985     10983     10986     10988
     10985     10983     10986     10989     10987     10986     10989     10990
     10987     10986     10989     10991     10987     10986     10989     10992
     10988     10986     10989     10990     10988     10986     10989     10991
     10988     10986     10989     10992     10993     10999     10996     10997
     10993     10999     10996     10998     10993     10999     10996     11000
     10993     11004     11006     11007     10993     11004     11008     11009
     10993     11004     11008     11010     10993     11004     11008     11014
     10994     10993     10999     10996     10994     10993     11004     11005
     10994     10993     11004     11006     10994     10993     11004     11008
     10995     10993     10999     10996     10995     10993     11004     11005
     10995     10993     11004     11006     10995     10993     11004     11008
     10996     10999     10993     11004     10996     11000     11001     11002
     10996     11000     11001     11003     10996     11000     11001     11036
     10997     10996     11000     11001     10998     10996     11000     11001
     10999     10993     11004     11005     10999     10993     11004     11006
     10999     10993     11004     11008     10999     10996     11000     11001
     11000     11001     11036     11037     11000     11001     11036     11038
     11000     11001     11036     11044     11001     11036     11038     11039
     11001     11036     11044     11045     11001     11036     11044     11046
     11001     11036     11044     11047     11002     11001     11036     11037
     11002     11001     11036     11038     11002     11001     11036     11044
     11003     11001     11036     11037     11003     11001     11036     11038
     11003     11001     11036     11044     11004     11008     11014     11011
     11005     11004     11006     11007     11005     11004     11008     11009
     11005     11004     11008     11010     11005     11004     11008     11014
     11006     11004     11008     11009     11006     11004     11008     11010
     11006     11004     11008     11014     11007     11006     11004     11008
     11008     11014     11011     11012     11008     11014     11011     11013
     11008     11014     11011     11015     11009     11008     11014     11011
     11010     11008     11014     11011     11011     11015     11016     11017
     11011     11015     11016     11018     11011     11015     11016     11019
     11012     11011     11015     11016     11013     11011     11015     11016
     11014     11011     11015     11016     11015     11016     11019     11020
     11015     11016     11019     11021     11015     11016     11019     11027
     11016     11019     11021     11022     11016     11019     11027     11028
     11016     11019     11027     11029     11016     11019     11027     11030
     11017     11016     11019     11020     11017     11016     11019     11021
     11017     11016     11019     11027     11018     11016     11019     11020
     11018     11016     11019     11021     11018     11016     11019     11027
     11019     11021     11022     11023     11019     11021     11022     11024
     11019     11027     11030     11031     11020     11019     11021     11022
     11020     11019     11027     11028     11020     11019     11027     11029
     11020     11019     11027     11030     11021     11019     11027     11028
     11021     11019     11027     11029     11021     11019     11027     11030
     11021     11022     11024     11025     11021     11022     11024     11026
     11021     11022     11024     11053     11022     11021     11019     11027
     11022     11024     11053     11054     11022     11024     11053     11055
     11022     11024     11053     11056     11023     11022     11024     11025
     11023     11022     11024     11026     11023     11022     11024     11053
     11024     11053     11056     11057     11024     11053     11056     11058
     11024     11053     11056     11059     11025     11024     11053     11054
     11025     11024     11053     11055     11025     11024     11053     11056
     11026     11024     11053     11054     11026     11024     11053     11055
     11026     11024     11053     11056     11027     11030     11031     11032
     11027     11030     11031     11033     11028     11027     11030     11031
     11029     11027     11030     11031     11030     11031     11033     11034
     11030     11031     11033     11035     11030     11031     11033     11100
     11031     11033     11100     11101     11031     11033     11100     11102
     11031     11033     11100     11103     11032     11031     11033     11034
     11032     11031     11033     11035     11032     11031     11033     11100
     11033     11100     11103     11104     11033     11100     11103     11105
     11033     11100     11103     11106     11034     11033     11100     11101
     11034     11033     11100     11102     11034     11033     11100     11103
     11035     11033     11100     11101     11035     11033     11100     11102
     11035     11033     11100     11103     11036     11038     11039     11040
     11036     11038     11039     11041     11036     11044     11047     11048
     11037     11036     11038     11039     11037     11036     11044     11045
     11037     11036     11044     11046     11037     11036     11044     11047
     11038     11036     11044     11045     11038     11036     11044     11046
     11038     11036     11044     11047     11038     11039     11041     11042
     11038     11039     11041     11043     11038     11039     11041     11143
     11039     11038     11036     11044     11039     11041     11143     11144
     11039     11041     11143     11145     11039     11041     11143     11146
     11040     11039     11041     11042     11040     11039     11041     11043
     11040     11039     11041     11143     11041     11143     11146     11147
     11041     11143     11146     11148     11041     11143     11146     11149
     11042     11041     11143     11144     11042     11041     11143     11145
     11042     11041     11143     11146     11043     11041     11143     11144
     11043     11041     11143     11145     11043     11041     11143     11146
     11044     11047     11048     11049     11044     11047     11048     11050
     11045     11044     11047     11048     11046     11044     11047     11048
     11047     11048     11050     11051     11047     11048     11050     11052
     11047     11048     11050     11190     11048     11050     11190     11191
     11048     11050     11190     11192     11048     11050     11190     11193
     11049     11048     11050     11051     11049     11048     11050     11052
     11049     11048     11050     11190     11050     11190     11193     11194
     11050     11190     11193     11195     11050     11190     11193     11196
     11051     11050     11190     11191     11051     11050     11190     11192
     11051     11050     11190     11193     11052     11050     11190     11191
     11052     11050     11190     11192     11052     11050     11190     11193
     11053     11056     11059     11060     11053     11056     11059     11061
     11053     11056     11059     11062     11054     11053     11056     11057
     11054     11053     11056     11058     11054     11053     11056     11059
     11055     11053     11056     11057     11055     11053     11056     11058
     11055     11053     11056     11059     11056     11059     11062     11063
     11056     11059     11062     11064     11056     11059     11062     11065
     11057     11056     11059     11060     11057     11056     11059     11061
     11057     11056     11059     11062     11058     11056     11059     11060
     11058     11056     11059     11061     11058     11056     11059     11062
     11059     11062     11065     11066     11059     11062     11065     11067
     11059     11062     11065     11068     11060     11059     11062     11063
     11060     11059     11062     11064     11060     11059     11062     11065
     11061     11059     11062     11063     11061     11059     11062     11064
     11061     11059     11062     11065     11062     11065     11068     11069
     11062     11065     11068     11070     11062     11065     11068     11071
     11063     11062     11065     11066     11063     11062     11065     11067
     11063     11062     11065     11068     11064     11062     11065     11066
     11064     11062     11065     11067     11064     11062     11065     11068
     11065     11068     11071     11072     11065     11068     11071     11073
     11065     11068     11071     11074     11066     11065     11068     11069
     11066     11065     11068     11070     11066     11065     11068     11071
     11067     11065     11068     11069     11067     11065     11068     11070
     11067     11065     11068     11071     11068     11071     11074     11075
     11068     11071     11074     11076     11068     11071     11074     11077
     11069     11068     11071     11072     11069     11068     11071     11073
     11069     11068     11071     11074     11070     11068     11071     11072
     11070     11068     11071     11073     11070     11068     11071     11074
     11071     11074     11077     11078     11071     11074     11077     11079
     11072     11071     11074     11075     11072     11071     11074     11076
     11072     11071     11074     11077     11073     11071     11074     11075
     11073     11071     11074     11076     11073     11071     11074     11077
     11074     11077     11079     11080     11074     11077     11079     11081
     11075     11074     11077     11078     11075     11074     11077     11079
     11076     11074     11077     11078     11076     11074     11077     11079
     11077     11079     11081     11082     11077     11079     11081     11083
     11077     11079     11081     11084     11078     11077     11079     11080
     11078     11077     11079     11081     11079     11081     11084     11085
     11079     11081     11084     11086     11079     11081     11084     11087
     11080     11079     11081     11082     11080     11079     11081     11083
     11080     11079     11081     11084     11081     11084     11087     11088
     11081     11084     11087     11089     11081     11084     11087     11090
     11082     11081     11084     11085     11082     11081     11084     11086
     11082     11081     11084     11087     11083     11081     11084     11085
     11083     11081     11084     11086     11083     11081     11084     11087
     11084     11087     11090     11091     11084     11087     11090     11092
     11084     11087     11090     11093     11085     11084     11087     11088
     11085     11084     11087     11089     11085     11084     11087     11090
     11086     11084     11087     11088     11086     11084     11087     11089
     11086     11084     11087     11090     11087     11090     11093     11094
     11087     11090     11093     11095     11087     11090     11093     11096
     11088     11087     11090     11091     11088     11087     11090     11092
     11088     11087     11090     11093     11089     11087     11090     11091
     11089     11087     11090     11092     11089     11087     11090     11093
     11090     11093     11096     11097     11090     11093     11096     11098
     11090     11093     11096     11099     11091     11090     11093     11094
     11091     11090     11093     11095     11091     11090     11093     11096
     11092     11090     11093     11094     11092     11090     11093     11095
     11092     11090     11093     11096     11094     11093     11096     11097
     11094     11093     11096     11098     11094     11093     11096     11099
     11095     11093     11096     11097     11095     11093     11096     11098
     11095     11093     11096     11099     11100     11103     11106     11107
     11100     11103     11106     11108     11100     11103     11106     11109
     11101     11100     11103     11104     11101     11100     11103     11105
     11101     11100     11103     11106     11102     11100     11103     11104
     11102     11100     11103     11105     11102     11100     11103     11106
     11103     11106     11109     11110     11103     11106     11109     11111
     11103     11106     11109     11112     11104     11103     11106     11107
     11104     11103     11106     11108     11104     11103     11106     11109
     11105     11103     11106     11107     11105     11103     11106     11108
     11105     11103     11106     11109     11106     11109     11112     11113
     11106     11109     11112     11114     11106     11109     11112     11115
     11107     11106     11109     11110     11107     11106     11109     11111
     11107     11106     11109     11112     11108     11106     11109     11110
     11108     11106     11109     11111     11108     11106     11109     11112
     11109     11112     11115     11116     11109     11112     11115     11117
     11109     11112     11115     11118     11110     11109     11112     11113
     11110     11109     11112     11114     11110     11109     11112     11115
     11111     11109     11112     11113     11111     11109     11112     11114
     11111     11109     11112     11115     11112     11115     11118     11119
     11112     11115     11118     11120     11112     11115     11118     11121
     11113     11112     11115     11116     11113     11112     11115     11117
     11113     11112     11115     11118     11114     11112     11115     11116
     11114     11112     11115     11117     11114     11112     11115     11118
     11115     11118     11121     11122     11115     11118     11121     11123
     11115     11118     11121     11124     11116     11115     11118     11119
     11116     11115     11118     11120     11116     11115     11118     11121
     11117     11115     11118     11119     11117     11115     11118     11120
     11117     11115     11118     11121     11118     11121     11124     11125
     11118     11121     11124     11126     11118     11121     11124     11127
     11119     11118     11121     11122     11119     11118     11121     11123
     11119     11118     11121     11124     11120     11118     11121     11122
     11120     11118     11121     11123     11120     11118     11121     11124
     11121     11124     11127     11128     11121     11124     11127     11129
     11121     11124     11127     11130     11122     11121     11124     11125
     11122     11121     11124     11126     11122     11121     11124     11127
     11123     11121     11124     11125     11123     11121     11124     11126
     11123     11121     11124     11127     11124     11127     11130     11131
     11124     11127     11130     11132     11124     11127     11130     11133
     11125     11124     11127     11128     11125     11124     11127     11129
     11125     11124     11127     11130     11126     11124     11127     11128
     11126     11124     11127     11129     11126     11124     11127     11130
     11127     11130     11133     11134     11127     11130     11133     11135
     11127     11130     11133     11136     11128     11127     11130     11131
     11128     11127     11130     11132     11128     11127     11130     11133
     11129     11127     11130     11131     11129     11127     11130     11132
     11129     11127     11130     11133     11130     11133     11136     11137
     11130     11133     11136     11138     11130     11133     11136     11139
     11131     11130     11133     11134     11131     11130     11133     11135
     11131     11130     11133     11136     11132     11130     11133     11134
     11132     11130     11133     11135     11132     11130     11133     11136
     11133     11136     11139     11140     11133     11136     11139     11141
     11133     11136     11139     11142     11134     11133     11136     11137
     11134     11133     11136     11138     11134     11133     11136     11139
     11135     11133     11136     11137     11135     11133     11136     11138
     11135     11133     11136     11139     11137     11136     11139     11140
     11137     11136     11139     11141     11137     11136     11139     11142
     11138     11136     11139     11140     11138     11136     11139     11141
     11138     11136     11139     11142     11143     11146     11149     11150
     11143     11146     11149     11151     11143     11146     11149     11152
     11144     11143     11146     11147     11144     11143     11146     11148
     11144     11143     11146     11149     11145     11143     11146     11147
     11145     11143     11146     11148     11145     11143     11146     11149
     11146     11149     11152     11153     11146     11149     11152     11154
     11146     11149     11152     11155     11147     11146     11149     11150
     11147     11146     11149     11151     11147     11146     11149     11152
     11148     11146     11149     11150     11148     11146     11149     11151
     11148     11146     11149     11152     11149     11152     11155     11156
     11149     11152     11155     11157     11149     11152     11155     11158
     11150     11149     11152     11153     11150     11149     11152     11154
     11150     11149     11152     11155     11151     11149     11152     11153
     11151     11149     11152     11154     11151     11149     11152     11155
     11152     11155     11158     11159     11152     11155     11158     11160
     11152     11155     11158     11161     11153     11152     11155     11156
     11153     11152     11155     11157     11153     11152     11155     11158
     11154     11152     11155     11156     11154     11152     11155     11157
     11154     11152     11155     11158     11155     11158     11161     11162
     11155     11158     11161     11163     11155     11158     11161     11164
     11156     11155     11158     11159     11156     11155     11158     11160
     11156     11155     11158     11161     11157     11155     11158     11159
     11157     11155     11158     11160     11157     11155     11158     11161
     11158     11161     11164     11165     11158     11161     11164     11166
     11158     11161     11164     11167     11159     11158     11161     11162
     11159     11158     11161     11163     11159     11158     11161     11164
     11160     11158     11161     11162     11160     11158     11161     11163
     11160     11158     11161     11164     11161     11164     11167     11168
     11161     11164     11167     11169     11162     11161     11164     11165
     11162     11161     11164     11166     11162     11161     11164     11167
     11163     11161     11164     11165     11163     11161     11164     11166
     11163     11161     11164     11167     11164     11167     11169     11170
     11164     11167     11169     11171     11165     11164     11167     11168
     11165     11164     11167     11169     11166     11164     11167     11168
     11166     11164     11167     11169     11167     11169     11171     11172
     11167     11169     11171     11173     11167     11169     11171     11174
     11168     11167     11169     11170     11168     11167     11169     11171
     11169     11171     11174     11175     11169     11171     11174     11176
     11169     11171     11174     11177     11170     11169     11171     11172
     11170     11169     11171     11173     11170     11169     11171     11174
     11171     11174     11177     11178     11171     11174     11177     11179
     11171     11174     11177     11180     11172     11171     11174     11175
     11172     11171     11174     11176     11172     11171     11174     11177
     11173     11171     11174     11175     11173     11171     11174     11176
     11173     11171     11174     11177     11174     11177     11180     11181
     11174     11177     11180     11182     11174     11177     11180     11183
     11175     11174     11177     11178     11175     11174     11177     11179
     11175     11174     11177     11180     11176     11174     11177     11178
     11176     11174     11177     11179     11176     11174     11177     11180
     11177     11180     11183     11184     11177     11180     11183     11185
     11177     11180     11183     11186     11178     11177     11180     11181
     11178     11177     11180     11182     11178     11177     11180     11183
     11179     11177     11180     11181     11179     11177     11180     11182
     11179     11177     11180     11183     11180     11183     11186     11187
     11180     11183     11186     11188     11180     11183     11186     11189
     11181     11180     11183     11184     11181     11180     11183     11185
     11181     11180     11183     11186     11182     11180     11183     11184
     11182     11180     11183     11185     11182     11180     11183     11186
     11184     11183     11186     11187     11184     11183     11186     11188
     11184     11183     11186     11189     11185     11183     11186     11187
     11185     11183     11186     11188     11185     11183     11186     11189
     11190     11193     11196     11197     11190     11193     11196     11198
     11190     11193     11196     11199     11191     11190     11193     11194
     11191     11190     11193     11195     11191     11190     11193     11196
     11192     11190     11193     11194     11192     11190     11193     11195
     11192     11190     11193     11196     11193     11196     11199     11200
     11193     11196     11199     11201     11193     11196     11199     11202
     11194     11193     11196     11197     11194     11193     11196     11198
     11194     11193     11196     11199     11195     11193     11196     11197
     11195     11193     11196     11198     11195     11193     11196     11199
     11196     11199     11202     11203     11196     11199     11202     11204
     11196     11199     11202     11205     11197     11196     11199     11200
     11197     11196     11199     11201     11197     11196     11199     11202
     11198     11196     11199     11200     11198     11196     11199     11201
     11198     11196     11199     11202     11199     11202     11205     11206
     11199     11202     11205     11207     11199     11202     11205     11208
     11200     11199     11202     11203     11200     11199     11202     11204
     11200     11199     11202     11205     11201     11199     11202     11203
     11201     11199     11202     11204     11201     11199     11202     11205
     11202     11205     11208     11209     11202     11205     11208     11210
     11202     11205     11208     11211     11203     11202     11205     11206
     11203     11202     11205     11207     11203     11202     11205     11208
     11204     11202     11205     11206     11204     11202     11205     11207
     11204     11202     11205     11208     11205     11208     11211     11212
     11205     11208     11211     11213     11205     11208     11211     11214
     11206     11205     11208     11209     11206     11205     11208     11210
     11206     11205     11208     11211     11207     11205     11208     11209
     11207     11205     11208     11210     11207     11205     11208     11211
     11208     11211     11214     11215     11208     11211     11214     11216
     11208     11211     11214     11217     11209     11208     11211     11212
     11209     11208     11211     11213     11209     11208     11211     11214
     11210     11208     11211     11212     11210     11208     11211     11213
     11210     11208     11211     11214     11211     11214     11217     11218
     11211     11214     11217     11219     11211     11214     11217     11220
     11212     11211     11214     11215     11212     11211     11214     11216
     11212     11211     11214     11217     11213     11211     11214     11215
     11213     11211     11214     11216     11213     11211     11214     11217
     11214     11217     11220     11221     11214     11217     11220     11222
     11214     11217     11220     11223     11215     11214     11217     11218
     11215     11214     11217     11219     11215     11214     11217     11220
     11216     11214     11217     11218     11216     11214     11217     11219
     11216     11214     11217     11220     11217     11220     11223     11224
     11217     11220     11223     11225     11217     11220     11223     11226
     11218     11217     11220     11221     11218     11217     11220     11222
     11218     11217     11220     11223     11219     11217     11220     11221
     11219     11217     11220     11222     11219     11217     11220     11223
     11220     11223     11226     11227     11220     11223     11226     11228
     11220     11223     11226     11229     11221     11220     11223     11224
     11221     11220     11223     11225     11221     11220     11223     11226
     11222     11220     11223     11224     11222     11220     11223     11225
     11222     11220     11223     11226     11223     11226     11229     11230
     11223     11226     11229     11231     11223     11226     11229     11232
     11224     11223     11226     11227     11224     11223     11226     11228
     11224     11223     11226     11229     11225     11223     11226     11227
     11225     11223     11226     11228     11225     11223     11226     11229
     11227     11226     11229     11230     11227     11226     11229     11231
     11227     11226     11229     11232     11228     11226     11229     11230
     11228     11226     11229     11231     11228     11226     11229     11232
     11233     11237     11240     11241     11233     11237     11240     11242
     11233     11237     11240     11247     11234     11233     11237     11238
     11234     11233     11237     11239     11234     11233     11237     11240
     11235     11233     11237     11238     11235     11233     11237     11239
     11235     11233     11237     11240     11236     11233     11237     11238
     11236     11233     11237     11239     11236     11233     11237     11240
     11237     11240     11247     11243     11238     11237     11240     11241
     11238     11237     11240     11242     11238     11237     11240     11247
     11239     11237     11240     11241     11239     11237     11240     11242
     11239     11237     11240     11247     11240     11247     11243     11244
     11240     11247     11243     11245     11240     11247     11243     11246
     11241     11240     11247     11243     11242     11240     11247     11243
     11243     11246     11248     11249     11243     11246     11248     11250
     11243     11246     11248     11251     11244     11243     11246     11248
     11245     11243     11246     11248     11246     11248     11251     11252
     11246     11248     11251     11253     11246     11248     11251     11259
     11247     11243     11246     11248     11248     11251     11253     11254
     11248     11251     11259     11260     11248     11251     11259     11261
     11248     11251     11259     11262     11249     11248     11251     11252
     11249     11248     11251     11253     11249     11248     11251     11259
     11250     11248     11251     11252     11250     11248     11251     11253
     11250     11248     11251     11259     11251     11253     11254     11255
     11251     11253     11254     11256     11251     11259     11262     11263
     11252     11251     11253     11254     11252     11251     11259     11260
     11252     11251     11259     11261     11252     11251     11259     11262
     11253     11251     11259     11260     11253     11251     11259     11261
     11253     11251     11259     11262     11253     11254     11256     11257
     11253     11254     11256     11258     11253     11254     11256     11268
     11254     11253     11251     11259     11254     11256     11268     11269
     11254     11256     11268     11270     11254     11256     11268     11271
     11255     11254     11256     11257     11255     11254     11256     11258
     11255     11254     11256     11268     11256     11268     11271     11272
     11256     11268     11271     11273     11256     11268     11271     11274
     11257     11256     11268     11269     11257     11256     11268     11270
     11257     11256     11268     11271     11258     11256     11268     11269
     11258     11256     11268     11270     11258     11256     11268     11271
     11259     11262     11263     11264     11259     11262     11263     11265
     11260     11259     11262     11263     11261     11259     11262     11263
     11262     11263     11265     11266     11262     11263     11265     11267
     11262     11263     11265     11312     11263     11265     11312     11313
     11263     11265     11312     11314     11263     11265     11312     11315
     11264     11263     11265     11266     11264     11263     11265     11267
     11264     11263     11265     11312     11265     11312     11315     11316
     11265     11312     11315     11317     11265     11312     11315     11318
     11266     11265     11312     11313     11266     11265     11312     11314
     11266     11265     11312     11315     11267     11265     11312     11313
     11267     11265     11312     11314     11267     11265     11312     11315
     11268     11271     11274     11275     11268     11271     11274     11276
     11268     11271     11274     11277     11269     11268     11271     11272
     11269     11268     11271     11273     11269     11268     11271     11274
     11270     11268     11271     11272     11270     11268     11271     11273
     11270     11268     11271     11274     11271     11274     11277     11278
     11271     11274     11277     11279     11271     11274     11277     11280
     11272     11271     11274     11275     11272     11271     11274     11276
     11272     11271     11274     11277     11273     11271     11274     11275
     11273     11271     11274     11276     11273     11271     11274     11277
     11274     11277     11280     11281     11274     11277     11280     11282
     11274     11277     11280     11283     11275     11274     11277     11278
     11275     11274     11277     11279     11275     11274     11277     11280
     11276     11274     11277     11278     11276     11274     11277     11279
     11276     11274     11277     11280     11277     11280     11283     11284
     11277     11280     11283     11285     11277     11280     11283     11286
     11278     11277     11280     11281     11278     11277     11280     11282
     11278     11277     11280     11283     11279     11277     11280     11281
     11279     11277     11280     11282     11279     11277     11280     11283
     11280     11283     11286     11287     11280     11283     11286     11288
     11280     11283     11286     11291     11281     11280     11283     11284
     11281     11280     11283     11285     11281     11280     11283     11286
     11282     11280     11283     11284     11282     11280     11283     11285
     11282     11280     11283     11286     11283     11286     11288     11289
     11283     11286     11288     11290     11283     11286     11288     11291
     11283     11286     11291     11288     11283     11286     11291     11292
     11283     11286     11291     11293     11284     11283     11286     11287
     11284     11283     11286     11288     11284     11283     11286     11291
     11285     11283     11286     11287     11285     11283     11286     11288
     11285     11283     11286     11291     11286     11288     11291     11292
     11286     11288     11291     11293     11286     11291     11288     11289
     11286     11291     11288     11290     11286     11291     11293     11294
     11286     11291     11293     11295     11286     11291     11293     11296
     11287     11286     11288     11289     11287     11286     11288     11290
     11287     11286     11288     11291     11287     11286     11291     11288
     11287     11286     11291     11292     11287     11286     11291     11293
     11288     11286     11291     11292     11288     11286     11291     11293
     11288     11291     11293     11294     11288     11291     11293     11295
     11288     11291     11293     11296     11289     11288     11286     11291
     11289     11288     11291     11292     11289     11288     11291     11293
     11290     11288     11286     11291     11290     11288     11291     11292
     11290     11288     11291     11293     11291     11293     11296     11297
     11291     11293     11296     11298     11291     11293     11296     11299
     11292     11291     11293     11294     11292     11291     11293     11295
     11292     11291     11293     11296     11293     11296     11299     11300
     11293     11296     11299     11301     11293     11296     11299     11302
     11294     11293     11296     11297     11294     11293     11296     11298
     11294     11293     11296     11299     11295     11293     11296     11297
     11295     11293     11296     11298     11295     11293     11296     11299
     11296     11299     11302     11303     11296     11299     11302     11304
     11296     11299     11302     11305     11297     11296     11299     11300
     11297     11296     11299     11301     11297     11296     11299     11302
     11298     11296     11299     11300     11298     11296     11299     11301
     11298     11296     11299     11302     11299     11302     11305     11306
     11299     11302     11305     11307     11299     11302     11305     11308
     11300     11299     11302     11303     11300     11299     11302     11304
     11300     11299     11302     11305     11301     11299     11302     11303
     11301     11299     11302     11304     11301     11299     11302     11305
     11302     11305     11308     11309     11302     11305     11308     11310
     11302     11305     11308     11311     11303     11302     11305     11306
     11303     11302     11305     11307     11303     11302     11305     11308
     11304     11302     11305     11306     11304     11302     11305     11307
     11304     11302     11305     11308     11306     11305     11308     11309
     11306     11305     11308     11310     11306     11305     11308     11311
     11307     11305     11308     11309     11307     11305     11308     11310
     11307     11305     11308     11311     11312     11315     11318     11319
     11312     11315     11318     11320     11312     11315     11318     11321
     11313     11312     11315     11316     11313     11312     11315     11317
     11313     11312     11315     11318     11314     11312     11315     11316
     11314     11312     11315     11317     11314     11312     11315     11318
     11315     11318     11321     11322     11315     11318     11321     11323
     11315     11318     11321     11324     11316     11315     11318     11319
     11316     11315     11318     11320     11316     11315     11318     11321
     11317     11315     11318     11319     11317     11315     11318     11320
     11317     11315     11318     11321     11318     11321     11324     11325
     11318     11321     11324     11326     11318     11321     11324     11327
     11319     11318     11321     11322     11319     11318     11321     11323
     11319     11318     11321     11324     11320     11318     11321     11322
     11320     11318     11321     11323     11320     11318     11321     11324
     11321     11324     11327     11328     11321     11324     11327     11329
     11321     11324     11327     11330     11322     11321     11324     11325
     11322     11321     11324     11326     11322     11321     11324     11327
     11323     11321     11324     11325     11323     11321     11324     11326
     11323     11321     11324     11327     11324     11327     11330     11331
     11324     11327     11330     11332     11324     11327     11330     11333
     11325     11324     11327     11328     11325     11324     11327     11329
     11325     11324     11327     11330     11326     11324     11327     11328
     11326     11324     11327     11329     11326     11324     11327     11330
     11327     11330     11333     11334     11327     11330     11333     11335
     11327     11330     11333     11336     11328     11327     11330     11331
     11328     11327     11330     11332     11328     11327     11330     11333
     11329     11327     11330     11331     11329     11327     11330     11332
     11329     11327     11330     11333     11330     11333     11336     11337
     11330     11333     11336     11338     11330     11333     11336     11339
     11331     11330     11333     11334     11331     11330     11333     11335
     11331     11330     11333     11336     11332     11330     11333     11334
     11332     11330     11333     11335     11332     11330     11333     11336
     11333     11336     11339     11340     11333     11336     11339     11341
     11333     11336     11339     11342     11334     11333     11336     11337
     11334     11333     11336     11338     11334     11333     11336     11339
     11335     11333     11336     11337     11335     11333     11336     11338
     11335     11333     11336     11339     11336     11339     11342     11343
     11336     11339     11342     11344     11336     11339     11342     11345
     11337     11336     11339     11340     11337     11336     11339     11341
     11337     11336     11339     11342     11338     11336     11339     11340
     11338     11336     11339     11341     11338     11336     11339     11342
     11339     11342     11345     11346     11339     11342     11345     11347
     11339     11342     11345     11348     11340     11339     11342     11343
     11340     11339     11342     11344     11340     11339     11342     11345
     11341     11339     11342     11343     11341     11339     11342     11344
     11341     11339     11342     11345     11342     11345     11348     11349
     11342     11345     11348     11350     11342     11345     11348     11351
     11343     11342     11345     11346     11343     11342     11345     11347
     11343     11342     11345     11348     11344     11342     11345     11346
     11344     11342     11345     11347     11344     11342     11345     11348
     11345     11348     11351     11352     11345     11348     11351     11353
     11345     11348     11351     11354     11346     11345     11348     11349
     11346     11345     11348     11350     11346     11345     11348     11351
     11347     11345     11348     11349     11347     11345     11348     11350
     11347     11345     11348     11351     11349     11348     11351     11352
     11349     11348     11351     11353     11349     11348     11351     11354
     11350     11348     11351     11352     11350     11348     11351     11353
     11350     11348     11351     11354     11355     11359     11362     11363
     11355     11359     11362     11364     11355     11359     11362     11369
     11356     11355     11359     11360     11356     11355     11359     11361
     11356     11355     11359     11362     11357     11355     11359     11360
     11357     11355     11359     11361     11357     11355     11359     11362
     11358     11355     11359     11360     11358     11355     11359     11361
     11358     11355     11359     11362     11359     11362     11369     11365
     11360     11359     11362     11363     11360     11359     11362     11364
     11360     11359     11362     11369     11361     11359     11362     11363
     11361     11359     11362     11364     11361     11359     11362     11369
     11362     11369     11365     11366     11362     11369     11365     11367
     11362     11369     11365     11368     11363     11362     11369     11365
     11364     11362     11369     11365     11365     11368     11370     11371
     11365     11368     11370     11372     11365     11368     11370     11373
     11366     11365     11368     11370     11367     11365     11368     11370
     11368     11370     11373     11374     11368     11370     11373     11375
     11368     11370     11373     11381     11369     11365     11368     11370
     11370     11373     11375     11376     11370     11373     11381     11382
     11370     11373     11381     11383     11370     11373     11381     11384
     11371     11370     11373     11374     11371     11370     11373     11375
     11371     11370     11373     11381     11372     11370     11373     11374
     11372     11370     11373     11375     11372     11370     11373     11381
     11373     11375     11376     11377     11373     11375     11376     11378
     11373     11381     11384     11385     11374     11373     11375     11376
     11374     11373     11381     11382     11374     11373     11381     11383
     11374     11373     11381     11384     11375     11373     11381     11382
     11375     11373     11381     11383     11375     11373     11381     11384
     11375     11376     11378     11379     11375     11376     11378     11380
     11375     11376     11378     11390     11376     11375     11373     11381
     11376     11378     11390     11391     11376     11378     11390     11392
     11376     11378     11390     11393     11377     11376     11378     11379
     11377     11376     11378     11380     11377     11376     11378     11390
     11378     11390     11393     11394     11378     11390     11393     11395
     11378     11390     11393     11396     11379     11378     11390     11391
     11379     11378     11390     11392     11379     11378     11390     11393
     11380     11378     11390     11391     11380     11378     11390     11392
     11380     11378     11390     11393     11381     11384     11385     11386
     11381     11384     11385     11387     11382     11381     11384     11385
     11383     11381     11384     11385     11384     11385     11387     11388
     11384     11385     11387     11389     11384     11385     11387     11434
     11385     11387     11434     11435     11385     11387     11434     11436
     11385     11387     11434     11437     11386     11385     11387     11388
     11386     11385     11387     11389     11386     11385     11387     11434
     11387     11434     11437     11438     11387     11434     11437     11439
     11387     11434     11437     11440     11388     11387     11434     11435
     11388     11387     11434     11436     11388     11387     11434     11437
     11389     11387     11434     11435     11389     11387     11434     11436
     11389     11387     11434     11437     11390     11393     11396     11397
     11390     11393     11396     11398     11390     11393     11396     11399
     11391     11390     11393     11394     11391     11390     11393     11395
     11391     11390     11393     11396     11392     11390     11393     11394
     11392     11390     11393     11395     11392     11390     11393     11396
     11393     11396     11399     11400     11393     11396     11399     11401
     11393     11396     11399     11402     11394     11393     11396     11397
     11394     11393     11396     11398     11394     11393     11396     11399
     11395     11393     11396     11397     11395     11393     11396     11398
     11395     11393     11396     11399     11396     11399     11402     11403
     11396     11399     11402     11404     11396     11399     11402     11405
     11397     11396     11399     11400     11397     11396     11399     11401
     11397     11396     11399     11402     11398     11396     11399     11400
     11398     11396     11399     11401     11398     11396     11399     11402
     11399     11402     11405     11406     11399     11402     11405     11407
     11399     11402     11405     11408     11400     11399     11402     11403
     11400     11399     11402     11404     11400     11399     11402     11405
     11401     11399     11402     11403     11401     11399     11402     11404
     11401     11399     11402     11405     11402     11405     11408     11409
     11402     11405     11408     11410     11402     11405     11408     11413
     11403     11402     11405     11406     11403     11402     11405     11407
     11403     11402     11405     11408     11404     11402     11405     11406
     11404     11402     11405     11407     11404     11402     11405     11408
     11405     11408     11410     11411     11405     11408     11410     11412
     11405     11408     11410     11413     11405     11408     11413     11410
     11405     11408     11413     11414     11405     11408     11413     11415
     11406     11405     11408     11409     11406     11405     11408     11410
     11406     11405     11408     11413     11407     11405     11408     11409
     11407     11405     11408     11410     11407     11405     11408     11413
     11408     11410     11413     11414     11408     11410     11413     11415
     11408     11413     11410     11411     11408     11413     11410     11412
     11408     11413     11415     11416     11408     11413     11415     11417
     11408     11413     11415     11418     11409     11408     11410     11411
     11409     11408     11410     11412     11409     11408     11410     11413
     11409     11408     11413     11410     11409     11408     11413     11414
     11409     11408     11413     11415     11410     11408     11413     11414
     11410     11408     11413     11415     11410     11413     11415     11416
     11410     11413     11415     11417     11410     11413     11415     11418
     11411     11410     11408     11413     11411     11410     11413     11414
     11411     11410     11413     11415     11412     11410     11408     11413
     11412     11410     11413     11414     11412     11410     11413     11415
     11413     11415     11418     11419     11413     11415     11418     11420
     11413     11415     11418     11421     11414     11413     11415     11416
     11414     11413     11415     11417     11414     11413     11415     11418
     11415     11418     11421     11422     11415     11418     11421     11423
     11415     11418     11421     11424     11416     11415     11418     11419
     11416     11415     11418     11420     11416     11415     11418     11421
     11417     11415     11418     11419     11417     11415     11418     11420
     11417     11415     11418     11421     11418     11421     11424     11425
     11418     11421     11424     11426     11418     11421     11424     11427
     11419     11418     11421     11422     11419     11418     11421     11423
     11419     11418     11421     11424     11420     11418     11421     11422
     11420     11418     11421     11423     11420     11418     11421     11424
     11421     11424     11427     11428     11421     11424     11427     11429
     11421     11424     11427     11430     11422     11421     11424     11425
     11422     11421     11424     11426     11422     11421     11424     11427
     11423     11421     11424     11425     11423     11421     11424     11426
     11423     11421     11424     11427     11424     11427     11430     11431
     11424     11427     11430     11432     11424     11427     11430     11433
     11425     11424     11427     11428     11425     11424     11427     11429
     11425     11424     11427     11430     11426     11424     11427     11428
     11426     11424     11427     11429     11426     11424     11427     11430
     11428     11427     11430     11431     11428     11427     11430     11432
     11428     11427     11430     11433     11429     11427     11430     11431
     11429     11427     11430     11432     11429     11427     11430     11433
     11434     11437     11440     11441     11434     11437     11440     11442
     11434     11437     11440     11443     11435     11434     11437     11438
     11435     11434     11437     11439     11435     11434     11437     11440
     11436     11434     11437     11438     11436     11434     11437     11439
     11436     11434     11437     11440     11437     11440     11443     11444
     11437     11440     11443     11445     11437     11440     11443     11446
     11438     11437     11440     11441     11438     11437     11440     11442
     11438     11437     11440     11443     11439     11437     11440     11441
     11439     11437     11440     11442     11439     11437     11440     11443
     11440     11443     11446     11447     11440     11443     11446     11448
     11440     11443     11446     11449     11441     11440     11443     11444
     11441     11440     11443     11445     11441     11440     11443     11446
     11442     11440     11443     11444     11442     11440     11443     11445
     11442     11440     11443     11446     11443     11446     11449     11450
     11443     11446     11449     11451     11443     11446     11449     11452
     11444     11443     11446     11447     11444     11443     11446     11448
     11444     11443     11446     11449     11445     11443     11446     11447
     11445     11443     11446     11448     11445     11443     11446     11449
     11446     11449     11452     11453     11446     11449     11452     11454
     11446     11449     11452     11455     11447     11446     11449     11450
     11447     11446     11449     11451     11447     11446     11449     11452
     11448     11446     11449     11450     11448     11446     11449     11451
     11448     11446     11449     11452     11449     11452     11455     11456
     11449     11452     11455     11457     11449     11452     11455     11458
     11450     11449     11452     11453     11450     11449     11452     11454
     11450     11449     11452     11455     11451     11449     11452     11453
     11451     11449     11452     11454     11451     11449     11452     11455
     11452     11455     11458     11459     11452     11455     11458     11460
     11452     11455     11458     11461     11453     11452     11455     11456
     11453     11452     11455     11457     11453     11452     11455     11458
     11454     11452     11455     11456     11454     11452     11455     11457
     11454     11452     11455     11458     11455     11458     11461     11462
     11455     11458     11461     11463     11455     11458     11461     11464
     11456     11455     11458     11459     11456     11455     11458     11460
     11456     11455     11458     11461     11457     11455     11458     11459
     11457     11455     11458     11460     11457     11455     11458     11461
     11458     11461     11464     11465     11458     11461     11464     11466
     11458     11461     11464     11467     11459     11458     11461     11462
     11459     11458     11461     11463     11459     11458     11461     11464
     11460     11458     11461     11462     11460     11458     11461     11463
     11460     11458     11461     11464     11461     11464     11467     11468
     11461     11464     11467     11469     11461     11464     11467     11470
     11462     11461     11464     11465     11462     11461     11464     11466
     11462     11461     11464     11467     11463     11461     11464     11465
     11463     11461     11464     11466     11463     11461     11464     11467
     11464     11467     11470     11471     11464     11467     11470     11472
     11464     11467     11470     11473     11465     11464     11467     11468
     11465     11464     11467     11469     11465     11464     11467     11470
     11466     11464     11467     11468     11466     11464     11467     11469
     11466     11464     11467     11470     11467     11470     11473     11474
     11467     11470     11473     11475     11467     11470     11473     11476
     11468     11467     11470     11471     11468     11467     11470     11472
     11468     11467     11470     11473     11469     11467     11470     11471
     11469     11467     11470     11472     11469     11467     11470     11473
     11471     11470     11473     11474     11471     11470     11473     11475
     11471     11470     11473     11476     11472     11470     11473     11474
     11472     11470     11473     11475     11472     11470     11473     11476
     11477     11481     11484     11485     11477     11481     11484     11486
     11477     11481     11484     11491     11478     11477     11481     11482
     11478     11477     11481     11483     11478     11477     11481     11484
     11479     11477     11481     11482     11479     11477     11481     11483
     11479     11477     11481     11484     11480     11477     11481     11482
     11480     11477     11481     11483     11480     11477     11481     11484
     11481     11484     11491     11487     11482     11481     11484     11485
     11482     11481     11484     11486     11482     11481     11484     11491
     11483     11481     11484     11485     11483     11481     11484     11486
     11483     11481     11484     11491     11484     11491     11487     11488
     11484     11491     11487     11489     11484     11491     11487     11490
     11485     11484     11491     11487     11486     11484     11491     11487
     11487     11490     11492     11493     11487     11490     11492     11494
     11487     11490     11492     11495     11488     11487     11490     11492
     11489     11487     11490     11492     11490     11492     11495     11496
     11490     11492     11495     11497     11490     11492     11495     11503
     11491     11487     11490     11492     11492     11495     11497     11498
     11492     11495     11503     11504     11492     11495     11503     11505
     11492     11495     11503     11506     11493     11492     11495     11496
     11493     11492     11495     11497     11493     11492     11495     11503
     11494     11492     11495     11496     11494     11492     11495     11497
     11494     11492     11495     11503     11495     11497     11498     11499
     11495     11497     11498     11500     11495     11503     11506     11507
     11496     11495     11497     11498     11496     11495     11503     11504
     11496     11495     11503     11505     11496     11495     11503     11506
     11497     11495     11503     11504     11497     11495     11503     11505
     11497     11495     11503     11506     11497     11498     11500     11501
     11497     11498     11500     11502     11497     11498     11500     11512
     11498     11497     11495     11503     11498     11500     11512     11513
     11498     11500     11512     11514     11498     11500     11512     11515
     11499     11498     11500     11501     11499     11498     11500     11502
     11499     11498     11500     11512     11500     11512     11515     11516
     11500     11512     11515     11517     11500     11512     11515     11518
     11501     11500     11512     11513     11501     11500     11512     11514
     11501     11500     11512     11515     11502     11500     11512     11513
     11502     11500     11512     11514     11502     11500     11512     11515
     11503     11506     11507     11508     11503     11506     11507     11509
     11504     11503     11506     11507     11505     11503     11506     11507
     11506     11507     11509     11510     11506     11507     11509     11511
     11506     11507     11509     11556     11507     11509     11556     11557
     11507     11509     11556     11558     11507     11509     11556     11559
     11508     11507     11509     11510     11508     11507     11509     11511
     11508     11507     11509     11556     11509     11556     11559     11560
     11509     11556     11559     11561     11509     11556     11559     11562
     11510     11509     11556     11557     11510     11509     11556     11558
     11510     11509     11556     11559     11511     11509     11556     11557
     11511     11509     11556     11558     11511     11509     11556     11559
     11512     11515     11518     11519     11512     11515     11518     11520
     11512     11515     11518     11521     11513     11512     11515     11516
     11513     11512     11515     11517     11513     11512     11515     11518
     11514     11512     11515     11516     11514     11512     11515     11517
     11514     11512     11515     11518     11515     11518     11521     11522
     11515     11518     11521     11523     11515     11518     11521     11524
     11516     11515     11518     11519     11516     11515     11518     11520
     11516     11515     11518     11521     11517     11515     11518     11519
     11517     11515     11518     11520     11517     11515     11518     11521
     11518     11521     11524     11525     11518     11521     11524     11526
     11518     11521     11524     11527     11519     11518     11521     11522
     11519     11518     11521     11523     11519     11518     11521     11524
     11520     11518     11521     11522     11520     11518     11521     11523
     11520     11518     11521     11524     11521     11524     11527     11528
     11521     11524     11527     11529     11521     11524     11527     11530
     11522     11521     11524     11525     11522     11521     11524     11526
     11522     11521     11524     11527     11523     11521     11524     11525
     11523     11521     11524     11526     11523     11521     11524     11527
     11524     11527     11530     11531     11524     11527     11530     11532
     11524     11527     11530     11535     11525     11524     11527     11528
     11525     11524     11527     11529     11525     11524     11527     11530
     11526     11524     11527     11528     11526     11524     11527     11529
     11526     11524     11527     11530     11527     11530     11532     11533
     11527     11530     11532     11534     11527     11530     11532     11535
     11527     11530     11535     11532     11527     11530     11535     11536
     11527     11530     11535     11537     11528     11527     11530     11531
     11528     11527     11530     11532     11528     11527     11530     11535
     11529     11527     11530     11531     11529     11527     11530     11532
     11529     11527     11530     11535     11530     11532     11535     11536
     11530     11532     11535     11537     11530     11535     11532     11533
     11530     11535     11532     11534     11530     11535     11537     11538
     11530     11535     11537     11539     11530     11535     11537     11540
     11531     11530     11532     11533     11531     11530     11532     11534
     11531     11530     11532     11535     11531     11530     11535     11532
     11531     11530     11535     11536     11531     11530     11535     11537
     11532     11530     11535     11536     11532     11530     11535     11537
     11532     11535     11537     11538     11532     11535     11537     11539
     11532     11535     11537     11540     11533     11532     11530     11535
     11533     11532     11535     11536     11533     11532     11535     11537
     11534     11532     11530     11535     11534     11532     11535     11536
     11534     11532     11535     11537     11535     11537     11540     11541
     11535     11537     11540     11542     11535     11537     11540     11543
     11536     11535     11537     11538     11536     11535     11537     11539
     11536     11535     11537     11540     11537     11540     11543     11544
     11537     11540     11543     11545     11537     11540     11543     11546
     11538     11537     11540     11541     11538     11537     11540     11542
     11538     11537     11540     11543     11539     11537     11540     11541
     11539     11537     11540     11542     11539     11537     11540     11543
     11540     11543     11546     11547     11540     11543     11546     11548
     11540     11543     11546     11549     11541     11540     11543     11544
     11541     11540     11543     11545     11541     11540     11543     11546
     11542     11540     11543     11544     11542     11540     11543     11545
     11542     11540     11543     11546     11543     11546     11549     11550
     11543     11546     11549     11551     11543     11546     11549     11552
     11544     11543     11546     11547     11544     11543     11546     11548
     11544     11543     11546     11549     11545     11543     11546     11547
     11545     11543     11546     11548     11545     11543     11546     11549
     11546     11549     11552     11553     11546     11549     11552     11554
     11546     11549     11552     11555     11547     11546     11549     11550
     11547     11546     11549     11551     11547     11546     11549     11552
     11548     11546     11549     11550     11548     11546     11549     11551
     11548     11546     11549     11552     11550     11549     11552     11553
     11550     11549     11552     11554     11550     11549     11552     11555
     11551     11549     11552     11553     11551     11549     11552     11554
     11551     11549     11552     11555     11556     11559     11562     11563
     11556     11559     11562     11564     11556     11559     11562     11565
     11557     11556     11559     11560     11557     11556     11559     11561
     11557     11556     11559     11562     11558     11556     11559     11560
     11558     11556     11559     11561     11558     11556     11559     11562
     11559     11562     11565     11566     11559     11562     11565     11567
     11559     11562     11565     11568     11560     11559     11562     11563
     11560     11559     11562     11564     11560     11559     11562     11565
     11561     11559     11562     11563     11561     11559     11562     11564
     11561     11559     11562     11565     11562     11565     11568     11569
     11562     11565     11568     11570     11562     11565     11568     11571
     11563     11562     11565     11566     11563     11562     11565     11567
     11563     11562     11565     11568     11564     11562     11565     11566
     11564     11562     11565     11567     11564     11562     11565     11568
     11565     11568     11571     11572     11565     11568     11571     11573
     11565     11568     11571     11574     11566     11565     11568     11569
     11566     11565     11568     11570     11566     11565     11568     11571
     11567     11565     11568     11569     11567     11565     11568     11570
     11567     11565     11568     11571     11568     11571     11574     11575
     11568     11571     11574     11576     11568     11571     11574     11577
     11569     11568     11571     11572     11569     11568     11571     11573
     11569     11568     11571     11574     11570     11568     11571     11572
     11570     11568     11571     11573     11570     11568     11571     11574
     11571     11574     11577     11578     11571     11574     11577     11579
     11571     11574     11577     11580     11572     11571     11574     11575
     11572     11571     11574     11576     11572     11571     11574     11577
     11573     11571     11574     11575     11573     11571     11574     11576
     11573     11571     11574     11577     11574     11577     11580     11581
     11574     11577     11580     11582     11574     11577     11580     11583
     11575     11574     11577     11578     11575     11574     11577     11579
     11575     11574     11577     11580     11576     11574     11577     11578
     11576     11574     11577     11579     11576     11574     11577     11580
     11577     11580     11583     11584     11577     11580     11583     11585
     11577     11580     11583     11586     11578     11577     11580     11581
     11578     11577     11580     11582     11578     11577     11580     11583
     11579     11577     11580     11581     11579     11577     11580     11582
     11579     11577     11580     11583     11580     11583     11586     11587
     11580     11583     11586     11588     11580     11583     11586     11589
     11581     11580     11583     11584     11581     11580     11583     11585
     11581     11580     11583     11586     11582     11580     11583     11584
     11582     11580     11583     11585     11582     11580     11583     11586
     11583     11586     11589     11590     11583     11586     11589     11591
     11583     11586     11589     11592     11584     11583     11586     11587
     11584     11583     11586     11588     11584     11583     11586     11589
     11585     11583     11586     11587     11585     11583     11586     11588
     11585     11583     11586     11589     11586     11589     11592     11593
     11586     11589     11592     11594     11586     11589     11592     11595
     11587     11586     11589     11590     11587     11586     11589     11591
     11587     11586     11589     11592     11588     11586     11589     11590
     11588     11586     11589     11591     11588     11586     11589     11592
     11589     11592     11595     11596     11589     11592     11595     11597
     11589     11592     11595     11598     11590     11589     11592     11593
     11590     11589     11592     11594     11590     11589     11592     11595
     11591     11589     11592     11593     11591     11589     11592     11594
     11591     11589     11592     11595     11593     11592     11595     11596
     11593     11592     11595     11597     11593     11592     11595     11598
     11594     11592     11595     11596     11594     11592     11595     11597
     11594     11592     11595     11598     11599     11603     11606     11607
     11599     11603     11606     11608     11599     11603     11606     11613
     11600     11599     11603     11604     11600     11599     11603     11605
     11600     11599     11603     11606     11601     11599     11603     11604
     11601     11599     11603     11605     11601     11599     11603     11606
     11602     11599     11603     11604     11602     11599     11603     11605
     11602     11599     11603     11606     11603     11606     11613     11609
     11604     11603     11606     11607     11604     11603     11606     11608
     11604     11603     11606     11613     11605     11603     11606     11607
     11605     11603     11606     11608     11605     11603     11606     11613
     11606     11613     11609     11610     11606     11613     11609     11611
     11606     11613     11609     11612     11607     11606     11613     11609
     11608     11606     11613     11609     11609     11612     11614     11615
     11609     11612     11614     11616     11609     11612     11614     11617
     11610     11609     11612     11614     11611     11609     11612     11614
     11612     11614     11617     11618     11612     11614     11617     11619
     11612     11614     11617     11625     11613     11609     11612     11614
     11614     11617     11619     11620     11614     11617     11625     11626
     11614     11617     11625     11627     11614     11617     11625     11628
     11615     11614     11617     11618     11615     11614     11617     11619
     11615     11614     11617     11625     11616     11614     11617     11618
     11616     11614     11617     11619     11616     11614     11617     11625
     11617     11619     11620     11621     11617     11619     11620     11622
     11617     11625     11628     11629     11618     11617     11619     11620
     11618     11617     11625     11626     11618     11617     11625     11627
     11618     11617     11625     11628     11619     11617     11625     11626
     11619     11617     11625     11627     11619     11617     11625     11628
     11619     11620     11622     11623     11619     11620     11622     11624
     11619     11620     11622     11634     11620     11619     11617     11625
     11620     11622     11634     11635     11620     11622     11634     11636
     11620     11622     11634     11637     11621     11620     11622     11623
     11621     11620     11622     11624     11621     11620     11622     11634
     11622     11634     11637     11638     11622     11634     11637     11639
     11622     11634     11637     11640     11623     11622     11634     11635
     11623     11622     11634     11636     11623     11622     11634     11637
     11624     11622     11634     11635     11624     11622     11634     11636
     11624     11622     11634     11637     11625     11628     11629     11630
     11625     11628     11629     11631     11626     11625     11628     11629
     11627     11625     11628     11629     11628     11629     11631     11632
     11628     11629     11631     11633     11628     11629     11631     11681
     11629     11631     11681     11682     11629     11631     11681     11683
     11629     11631     11681     11684     11630     11629     11631     11632
     11630     11629     11631     11633     11630     11629     11631     11681
     11631     11681     11684     11685     11631     11681     11684     11686
     11631     11681     11684     11687     11632     11631     11681     11682
     11632     11631     11681     11683     11632     11631     11681     11684
     11633     11631     11681     11682     11633     11631     11681     11683
     11633     11631     11681     11684     11634     11637     11640     11641
     11634     11637     11640     11642     11634     11637     11640     11643
     11635     11634     11637     11638     11635     11634     11637     11639
     11635     11634     11637     11640     11636     11634     11637     11638
     11636     11634     11637     11639     11636     11634     11637     11640
     11637     11640     11643     11644     11637     11640     11643     11645
     11637     11640     11643     11646     11638     11637     11640     11641
     11638     11637     11640     11642     11638     11637     11640     11643
     11639     11637     11640     11641     11639     11637     11640     11642
     11639     11637     11640     11643     11640     11643     11646     11647
     11640     11643     11646     11648     11640     11643     11646     11649
     11641     11640     11643     11644     11641     11640     11643     11645
     11641     11640     11643     11646     11642     11640     11643     11644
     11642     11640     11643     11645     11642     11640     11643     11646
     11643     11646     11649     11650     11643     11646     11649     11651
     11643     11646     11649     11652     11644     11643     11646     11647
     11644     11643     11646     11648     11644     11643     11646     11649
     11645     11643     11646     11647     11645     11643     11646     11648
     11645     11643     11646     11649     11646     11649     11652     11653
     11646     11649     11652     11654     11647     11646     11649     11650
     11647     11646     11649     11651     11647     11646     11649     11652
     11648     11646     11649     11650     11648     11646     11649     11651
     11648     11646     11649     11652     11649     11652     11654     11655
     11649     11652     11654     11656     11650     11649     11652     11653
     11650     11649     11652     11654     11651     11649     11652     11653
     11651     11649     11652     11654     11652     11654     11656     11657
     11652     11654     11656     11658     11652     11654     11656     11659
     11653     11652     11654     11655     11653     11652     11654     11656
     11654     11656     11659     11660     11654     11656     11659     11661
     11654     11656     11659     11662     11655     11654     11656     11657
     11655     11654     11656     11658     11655     11654     11656     11659
     11656     11659     11662     11663     11656     11659     11662     11664
     11656     11659     11662     11665     11657     11656     11659     11660
     11657     11656     11659     11661     11657     11656     11659     11662
     11658     11656     11659     11660     11658     11656     11659     11661
     11658     11656     11659     11662     11659     11662     11665     11666
     11659     11662     11665     11667     11659     11662     11665     11668
     11660     11659     11662     11663     11660     11659     11662     11664
     11660     11659     11662     11665     11661     11659     11662     11663
     11661     11659     11662     11664     11661     11659     11662     11665
     11662     11665     11668     11669     11662     11665     11668     11670
     11662     11665     11668     11671     11663     11662     11665     11666
     11663     11662     11665     11667     11663     11662     11665     11668
     11664     11662     11665     11666     11664     11662     11665     11667
     11664     11662     11665     11668     11665     11668     11671     11672
     11665     11668     11671     11673     11665     11668     11671     11674
     11666     11665     11668     11669     11666     11665     11668     11670
     11666     11665     11668     11671     11667     11665     11668     11669
     11667     11665     11668     11670     11667     11665     11668     11671
     11668     11671     11674     11675     11668     11671     11674     11676
     11668     11671     11674     11677     11669     11668     11671     11672
     11669     11668     11671     11673     11669     11668     11671     11674
     11670     11668     11671     11672     11670     11668     11671     11673
     11670     11668     11671     11674     11671     11674     11677     11678
     11671     11674     11677     11679     11671     11674     11677     11680
     11672     11671     11674     11675     11672     11671     11674     11676
     11672     11671     11674     11677     11673     11671     11674     11675
     11673     11671     11674     11676     11673     11671     11674     11677
     11675     11674     11677     11678     11675     11674     11677     11679
     11675     11674     11677     11680     11676     11674     11677     11678
     11676     11674     11677     11679     11676     11674     11677     11680
     11681     11684     11687     11688     11681     11684     11687     11689
     11681     11684     11687     11690     11682     11681     11684     11685
     11682     11681     11684     11686     11682     11681     11684     11687
     11683     11681     11684     11685     11683     11681     11684     11686
     11683     11681     11684     11687     11684     11687     11690     11691
     11684     11687     11690     11692     11684     11687     11690     11693
     11685     11684     11687     11688     11685     11684     11687     11689
     11685     11684     11687     11690     11686     11684     11687     11688
     11686     11684     11687     11689     11686     11684     11687     11690
     11687     11690     11693     11694     11687     11690     11693     11695
     11687     11690     11693     11696     11688     11687     11690     11691
     11688     11687     11690     11692     11688     11687     11690     11693
     11689     11687     11690     11691     11689     11687     11690     11692
     11689     11687     11690     11693     11690     11693     11696     11697
     11690     11693     11696     11698     11690     11693     11696     11699
     11691     11690     11693     11694     11691     11690     11693     11695
     11691     11690     11693     11696     11692     11690     11693     11694
     11692     11690     11693     11695     11692     11690     11693     11696
     11693     11696     11699     11700     11693     11696     11699     11701
     11693     11696     11699     11702     11694     11693     11696     11697
     11694     11693     11696     11698     11694     11693     11696     11699
     11695     11693     11696     11697     11695     11693     11696     11698
     11695     11693     11696     11699     11696     11699     11702     11703
     11696     11699     11702     11704     11696     11699     11702     11705
     11697     11696     11699     11700     11697     11696     11699     11701
     11697     11696     11699     11702     11698     11696     11699     11700
     11698     11696     11699     11701     11698     11696     11699     11702
     11699     11702     11705     11706     11699     11702     11705     11707
     11699     11702     11705     11708     11700     11699     11702     11703
     11700     11699     11702     11704     11700     11699     11702     11705
     11701     11699     11702     11703     11701     11699     11702     11704
     11701     11699     11702     11705     11702     11705     11708     11709
     11702     11705     11708     11710     11702     11705     11708     11711
     11703     11702     11705     11706     11703     11702     11705     11707
     11703     11702     11705     11708     11704     11702     11705     11706
     11704     11702     11705     11707     11704     11702     11705     11708
     11705     11708     11711     11712     11705     11708     11711     11713
     11705     11708     11711     11714     11706     11705     11708     11709
     11706     11705     11708     11710     11706     11705     11708     11711
     11707     11705     11708     11709     11707     11705     11708     11710
     11707     11705     11708     11711     11708     11711     11714     11715
     11708     11711     11714     11716     11708     11711     11714     11717
     11709     11708     11711     11712     11709     11708     11711     11713
     11709     11708     11711     11714     11710     11708     11711     11712
     11710     11708     11711     11713     11710     11708     11711     11714
     11711     11714     11717     11718     11711     11714     11717     11719
     11711     11714     11717     11720     11712     11711     11714     11715
     11712     11711     11714     11716     11712     11711     11714     11717
     11713     11711     11714     11715     11713     11711     11714     11716
     11713     11711     11714     11717     11714     11717     11720     11721
     11714     11717     11720     11722     11714     11717     11720     11723
     11715     11714     11717     11718     11715     11714     11717     11719
     11715     11714     11717     11720     11716     11714     11717     11718
     11716     11714     11717     11719     11716     11714     11717     11720
     11718     11717     11720     11721     11718     11717     11720     11722
     11718     11717     11720     11723     11719     11717     11720     11721
     11719     11717     11720     11722     11719     11717     11720     11723
     11724     11728     11731     11732     11724     11728     11731     11733
     11724     11728     11731     11738     11725     11724     11728     11729
     11725     11724     11728     11730     11725     11724     11728     11731
     11726     11724     11728     11729     11726     11724     11728     11730
     11726     11724     11728     11731     11727     11724     11728     11729
     11727     11724     11728     11730     11727     11724     11728     11731
     11728     11731     11738     11734     11729     11728     11731     11732
     11729     11728     11731     11733     11729     11728     11731     11738
     11730     11728     11731     11732     11730     11728     11731     11733
     11730     11728     11731     11738     11731     11738     11734     11735
     11731     11738     11734     11736     11731     11738     11734     11737
     11732     11731     11738     11734     11733     11731     11738     11734
     11734     11737     11739     11740     11734     11737     11739     11741
     11734     11737     11739     11742     11735     11734     11737     11739
     11736     11734     11737     11739     11737     11739     11742     11743
     11737     11739     11742     11744     11737     11739     11742     11750
     11738     11734     11737     11739     11739     11742     11744     11745
     11739     11742     11750     11751     11739     11742     11750     11752
     11739     11742     11750     11753     11740     11739     11742     11743
     11740     11739     11742     11744     11740     11739     11742     11750
     11741     11739     11742     11743     11741     11739     11742     11744
     11741     11739     11742     11750     11742     11744     11745     11746
     11742     11744     11745     11747     11742     11750     11753     11754
     11743     11742     11744     11745     11743     11742     11750     11751
     11743     11742     11750     11752     11743     11742     11750     11753
     11744     11742     11750     11751     11744     11742     11750     11752
     11744     11742     11750     11753     11744     11745     11747     11748
     11744     11745     11747     11749     11744     11745     11747     11759
     11745     11744     11742     11750     11745     11747     11759     11760
     11745     11747     11759     11761     11745     11747     11759     11762
     11746     11745     11747     11748     11746     11745     11747     11749
     11746     11745     11747     11759     11747     11759     11762     11763
     11747     11759     11762     11764     11747     11759     11762     11765
     11748     11747     11759     11760     11748     11747     11759     11761
     11748     11747     11759     11762     11749     11747     11759     11760
     11749     11747     11759     11761     11749     11747     11759     11762
     11750     11753     11754     11755     11750     11753     11754     11756
     11751     11750     11753     11754     11752     11750     11753     11754
     11753     11754     11756     11757     11753     11754     11756     11758
     11753     11754     11756     11803     11754     11756     11803     11804
     11754     11756     11803     11805     11754     11756     11803     11806
     11755     11754     11756     11757     11755     11754     11756     11758
     11755     11754     11756     11803     11756     11803     11806     11807
     11756     11803     11806     11808     11756     11803     11806     11809
     11757     11756     11803     11804     11757     11756     11803     11805
     11757     11756     11803     11806     11758     11756     11803     11804
     11758     11756     11803     11805     11758     11756     11803     11806
     11759     11762     11765     11766     11759     11762     11765     11767
     11759     11762     11765     11768     11760     11759     11762     11763
     11760     11759     11762     11764     11760     11759     11762     11765
     11761     11759     11762     11763     11761     11759     11762     11764
     11761     11759     11762     11765     11762     11765     11768     11769
     11762     11765     11768     11770     11762     11765     11768     11771
     11763     11762     11765     11766     11763     11762     11765     11767
     11763     11762     11765     11768     11764     11762     11765     11766
     11764     11762     11765     11767     11764     11762     11765     11768
     11765     11768     11771     11772     11765     11768     11771     11773
     11765     11768     11771     11774     11766     11765     11768     11769
     11766     11765     11768     11770     11766     11765     11768     11771
     11767     11765     11768     11769     11767     11765     11768     11770
     11767     11765     11768     11771     11768     11771     11774     11775
     11768     11771     11774     11776     11768     11771     11774     11777
     11769     11768     11771     11772     11769     11768     11771     11773
     11769     11768     11771     11774     11770     11768     11771     11772
     11770     11768     11771     11773     11770     11768     11771     11774
     11771     11774     11777     11778     11771     11774     11777     11779
     11771     11774     11777     11782     11772     11771     11774     11775
     11772     11771     11774     11776     11772     11771     11774     11777
     11773     11771     11774     11775     11773     11771     11774     11776
     11773     11771     11774     11777     11774     11777     11779     11780
     11774     11777     11779     11781     11774     11777     11779     11782
     11774     11777     11782     11779     11774     11777     11782     11783
     11774     11777     11782     11784     11775     11774     11777     11778
     11775     11774     11777     11779     11775     11774     11777     11782
     11776     11774     11777     11778     11776     11774     11777     11779
     11776     11774     11777     11782     11777     11779     11782     11783
     11777     11779     11782     11784     11777     11782     11779     11780
     11777     11782     11779     11781     11777     11782     11784     11785
     11777     11782     11784     11786     11777     11782     11784     11787
     11778     11777     11779     11780     11778     11777     11779     11781
     11778     11777     11779     11782     11778     11777     11782     11779
     11778     11777     11782     11783     11778     11777     11782     11784
     11779     11777     11782     11783     11779     11777     11782     11784
     11779     11782     11784     11785     11779     11782     11784     11786
     11779     11782     11784     11787     11780     11779     11777     11782
     11780     11779     11782     11783     11780     11779     11782     11784
     11781     11779     11777     11782     11781     11779     11782     11783
     11781     11779     11782     11784     11782     11784     11787     11788
     11782     11784     11787     11789     11782     11784     11787     11790
     11783     11782     11784     11785     11783     11782     11784     11786
     11783     11782     11784     11787     11784     11787     11790     11791
     11784     11787     11790     11792     11784     11787     11790     11793
     11785     11784     11787     11788     11785     11784     11787     11789
     11785     11784     11787     11790     11786     11784     11787     11788
     11786     11784     11787     11789     11786     11784     11787     11790
     11787     11790     11793     11794     11787     11790     11793     11795
     11787     11790     11793     11796     11788     11787     11790     11791
     11788     11787     11790     11792     11788     11787     11790     11793
     11789     11787     11790     11791     11789     11787     11790     11792
     11789     11787     11790     11793     11790     11793     11796     11797
     11790     11793     11796     11798     11790     11793     11796     11799
     11791     11790     11793     11794     11791     11790     11793     11795
     11791     11790     11793     11796     11792     11790     11793     11794
     11792     11790     11793     11795     11792     11790     11793     11796
     11793     11796     11799     11800     11793     11796     11799     11801
     11793     11796     11799     11802     11794     11793     11796     11797
     11794     11793     11796     11798     11794     11793     11796     11799
     11795     11793     11796     11797     11795     11793     11796     11798
     11795     11793     11796     11799     11797     11796     11799     11800
     11797     11796     11799     11801     11797     11796     11799     11802
     11798     11796     11799     11800     11798     11796     11799     11801
     11798     11796     11799     11802     11803     11806     11809     11810
     11803     11806     11809     11811     11803     11806     11809     11812
     11804     11803     11806     11807     11804     11803     11806     11808
     11804     11803     11806     11809     11805     11803     11806     11807
     11805     11803     11806     11808     11805     11803     11806     11809
     11806     11809     11812     11813     11806     11809     11812     11814
     11806     11809     11812     11815     11807     11806     11809     11810
     11807     11806     11809     11811     11807     11806     11809     11812
     11808     11806     11809     11810     11808     11806     11809     11811
     11808     11806     11809     11812     11809     11812     11815     11816
     11809     11812     11815     11817     11809     11812     11815     11818
     11810     11809     11812     11813     11810     11809     11812     11814
     11810     11809     11812     11815     11811     11809     11812     11813
     11811     11809     11812     11814     11811     11809     11812     11815
     11812     11815     11818     11819     11812     11815     11818     11820
     11812     11815     11818     11821     11813     11812     11815     11816
     11813     11812     11815     11817     11813     11812     11815     11818
     11814     11812     11815     11816     11814     11812     11815     11817
     11814     11812     11815     11818     11815     11818     11821     11822
     11815     11818     11821     11823     11815     11818     11821     11824
     11816     11815     11818     11819     11816     11815     11818     11820
     11816     11815     11818     11821     11817     11815     11818     11819
     11817     11815     11818     11820     11817     11815     11818     11821
     11818     11821     11824     11825     11818     11821     11824     11826
     11818     11821     11824     11827     11819     11818     11821     11822
     11819     11818     11821     11823     11819     11818     11821     11824
     11820     11818     11821     11822     11820     11818     11821     11823
     11820     11818     11821     11824     11821     11824     11827     11828
     11821     11824     11827     11829     11821     11824     11827     11830
     11822     11821     11824     11825     11822     11821     11824     11826
     11822     11821     11824     11827     11823     11821     11824     11825
     11823     11821     11824     11826     11823     11821     11824     11827
     11824     11827     11830     11831     11824     11827     11830     11832
     11824     11827     11830     11833     11825     11824     11827     11828
     11825     11824     11827     11829     11825     11824     11827     11830
     11826     11824     11827     11828     11826     11824     11827     11829
     11826     11824     11827     11830     11827     11830     11833     11834
     11827     11830     11833     11835     11827     11830     11833     11836
     11828     11827     11830     11831     11828     11827     11830     11832
     11828     11827     11830     11833     11829     11827     11830     11831
     11829     11827     11830     11832     11829     11827     11830     11833
     11830     11833     11836     11837     11830     11833     11836     11838
     11830     11833     11836     11839     11831     11830     11833     11834
     11831     11830     11833     11835     11831     11830     11833     11836
     11832     11830     11833     11834     11832     11830     11833     11835
     11832     11830     11833     11836     11833     11836     11839     11840
     11833     11836     11839     11841     11833     11836     11839     11842
     11834     11833     11836     11837     11834     11833     11836     11838
     11834     11833     11836     11839     11835     11833     11836     11837
     11835     11833     11836     11838     11835     11833     11836     11839
     11836     11839     11842     11843     11836     11839     11842     11844
     11836     11839     11842     11845     11837     11836     11839     11840
     11837     11836     11839     11841     11837     11836     11839     11842
     11838     11836     11839     11840     11838     11836     11839     11841
     11838     11836     11839     11842     11840     11839     11842     11843
     11840     11839     11842     11844     11840     11839     11842     11845
     11841     11839     11842     11843     11841     11839     11842     11844
     11841     11839     11842     11845     11846     11850     11853     11854
     11846     11850     11853     11855     11846     11850     11853     11860
     11847     11846     11850     11851     11847     11846     11850     11852
     11847     11846     11850     11853     11848     11846     11850     11851
     11848     11846     11850     11852     11848     11846     11850     11853
     11849     11846     11850     11851     11849     11846     11850     11852
     11849     11846     11850     11853     11850     11853     11860     11856
     11851     11850     11853     11854     11851     11850     11853     11855
     11851     11850     11853     11860     11852     11850     11853     11854
     11852     11850     11853     11855     11852     11850     11853     11860
     11853     11860     11856     11857     11853     11860     11856     11858
     11853     11860     11856     11859     11854     11853     11860     11856
     11855     11853     11860     11856     11856     11859     11861     11862
     11856     11859     11861     11863     11856     11859     11861     11864
     11857     11856     11859     11861     11858     11856     11859     11861
     11859     11861     11864     11865     11859     11861     11864     11866
     11859     11861     11864     11872     11860     11856     11859     11861
     11861     11864     11866     11867     11861     11864     11872     11873
     11861     11864     11872     11874     11861     11864     11872     11875
     11862     11861     11864     11865     11862     11861     11864     11866
     11862     11861     11864     11872     11863     11861     11864     11865
     11863     11861     11864     11866     11863     11861     11864     11872
     11864     11866     11867     11868     11864     11866     11867     11869
     11864     11872     11875     11876     11865     11864     11866     11867
     11865     11864     11872     11873     11865     11864     11872     11874
     11865     11864     11872     11875     11866     11864     11872     11873
     11866     11864     11872     11874     11866     11864     11872     11875
     11866     11867     11869     11870     11866     11867     11869     11871
     11866     11867     11869     11881     11867     11866     11864     11872
     11867     11869     11881     11882     11867     11869     11881     11883
     11867     11869     11881     11884     11868     11867     11869     11870
     11868     11867     11869     11871     11868     11867     11869     11881
     11869     11881     11884     11885     11869     11881     11884     11886
     11869     11881     11884     11887     11870     11869     11881     11882
     11870     11869     11881     11883     11870     11869     11881     11884
     11871     11869     11881     11882     11871     11869     11881     11883
     11871     11869     11881     11884     11872     11875     11876     11877
     11872     11875     11876     11878     11873     11872     11875     11876
     11874     11872     11875     11876     11875     11876     11878     11879
     11875     11876     11878     11880     11875     11876     11878     11922
     11876     11878     11922     11923     11876     11878     11922     11924
     11876     11878     11922     11925     11877     11876     11878     11879
     11877     11876     11878     11880     11877     11876     11878     11922
     11878     11922     11925     11926     11878     11922     11925     11927
     11878     11922     11925     11928     11879     11878     11922     11923
     11879     11878     11922     11924     11879     11878     11922     11925
     11880     11878     11922     11923     11880     11878     11922     11924
     11880     11878     11922     11925     11881     11884     11887     11888
     11881     11884     11887     11889     11881     11884     11887     11890
     11882     11881     11884     11885     11882     11881     11884     11886
     11882     11881     11884     11887     11883     11881     11884     11885
     11883     11881     11884     11886     11883     11881     11884     11887
     11884     11887     11890     11891     11884     11887     11890     11892
     11884     11887     11890     11893     11885     11884     11887     11888
     11885     11884     11887     11889     11885     11884     11887     11890
     11886     11884     11887     11888     11886     11884     11887     11889
     11886     11884     11887     11890     11887     11890     11893     11894
     11887     11890     11893     11895     11887     11890     11893     11896
     11888     11887     11890     11891     11888     11887     11890     11892
     11888     11887     11890     11893     11889     11887     11890     11891
     11889     11887     11890     11892     11889     11887     11890     11893
     11890     11893     11896     11897     11890     11893     11896     11898
     11890     11893     11896     11899     11891     11890     11893     11894
     11891     11890     11893     11895     11891     11890     11893     11896
     11892     11890     11893     11894     11892     11890     11893     11895
     11892     11890     11893     11896     11893     11896     11899     11900
     11893     11896     11899     11901     11894     11893     11896     11897
     11894     11893     11896     11898     11894     11893     11896     11899
     11895     11893     11896     11897     11895     11893     11896     11898
     11895     11893     11896     11899     11896     11899     11901     11902
     11896     11899     11901     11903     11897     11896     11899     11900
     11897     11896     11899     11901     11898     11896     11899     11900
     11898     11896     11899     11901     11899     11901     11903     11904
     11899     11901     11903     11905     11899     11901     11903     11906
     11900     11899     11901     11902     11900     11899     11901     11903
     11901     11903     11906     11907     11901     11903     11906     11908
     11901     11903     11906     11909     11902     11901     11903     11904
     11902     11901     11903     11905     11902     11901     11903     11906
     11903     11906     11909     11910     11903     11906     11909     11911
     11903     11906     11909     11912     11904     11903     11906     11907
     11904     11903     11906     11908     11904     11903     11906     11909
     11905     11903     11906     11907     11905     11903     11906     11908
     11905     11903     11906     11909     11906     11909     11912     11913
     11906     11909     11912     11914     11906     11909     11912     11915
     11907     11906     11909     11910     11907     11906     11909     11911
     11907     11906     11909     11912     11908     11906     11909     11910
     11908     11906     11909     11911     11908     11906     11909     11912
     11909     11912     11915     11916     11909     11912     11915     11917
     11909     11912     11915     11918     11910     11909     11912     11913
     11910     11909     11912     11914     11910     11909     11912     11915
     11911     11909     11912     11913     11911     11909     11912     11914
     11911     11909     11912     11915     11912     11915     11918     11919
     11912     11915     11918     11920     11912     11915     11918     11921
     11913     11912     11915     11916     11913     11912     11915     11917
     11913     11912     11915     11918     11914     11912     11915     11916
     11914     11912     11915     11917     11914     11912     11915     11918
     11916     11915     11918     11919     11916     11915     11918     11920
     11916     11915     11918     11921     11917     11915     11918     11919
     11917     11915     11918     11920     11917     11915     11918     11921
     11922     11925     11928     11929     11922     11925     11928     11930
     11922     11925     11928     11931     11923     11922     11925     11926
     11923     11922     11925     11927     11923     11922     11925     11928
     11924     11922     11925     11926     11924     11922     11925     11927
     11924     11922     11925     11928     11925     11928     11931     11932
     11925     11928     11931     11933     11925     11928     11931     11934
     11926     11925     11928     11929     11926     11925     11928     11930
     11926     11925     11928     11931     11927     11925     11928     11929
     11927     11925     11928     11930     11927     11925     11928     11931
     11928     11931     11934     11935     11928     11931     11934     11936
     11928     11931     11934     11937     11929     11928     11931     11932
     11929     11928     11931     11933     11929     11928     11931     11934
     11930     11928     11931     11932     11930     11928     11931     11933
     11930     11928     11931     11934     11931     11934     11937     11938
     11931     11934     11937     11939     11931     11934     11937     11940
     11932     11931     11934     11935     11932     11931     11934     11936
     11932     11931     11934     11937     11933     11931     11934     11935
     11933     11931     11934     11936     11933     11931     11934     11937
     11934     11937     11940     11941     11934     11937     11940     11942
     11935     11934     11937     11938     11935     11934     11937     11939
     11935     11934     11937     11940     11936     11934     11937     11938
     11936     11934     11937     11939     11936     11934     11937     11940
     11937     11940     11942     11943     11937     11940     11942     11944
     11938     11937     11940     11941     11938     11937     11940     11942
     11939     11937     11940     11941     11939     11937     11940     11942
     11940     11942     11944     11945     11940     11942     11944     11946
     11940     11942     11944     11947     11941     11940     11942     11943
     11941     11940     11942     11944     11942     11944     11947     11948
     11942     11944     11947     11949     11942     11944     11947     11950
     11943     11942     11944     11945     11943     11942     11944     11946
     11943     11942     11944     11947     11944     11947     11950     11951
     11944     11947     11950     11952     11944     11947     11950     11953
     11945     11944     11947     11948     11945     11944     11947     11949
     11945     11944     11947     11950     11946     11944     11947     11948
     11946     11944     11947     11949     11946     11944     11947     11950
     11947     11950     11953     11954     11947     11950     11953     11955
     11947     11950     11953     11956     11948     11947     11950     11951
     11948     11947     11950     11952     11948     11947     11950     11953
     11949     11947     11950     11951     11949     11947     11950     11952
     11949     11947     11950     11953     11950     11953     11956     11957
     11950     11953     11956     11958     11950     11953     11956     11959
     11951     11950     11953     11954     11951     11950     11953     11955
     11951     11950     11953     11956     11952     11950     11953     11954
     11952     11950     11953     11955     11952     11950     11953     11956
     11953     11956     11959     11960     11953     11956     11959     11961
     11953     11956     11959     11962     11954     11953     11956     11957
     11954     11953     11956     11958     11954     11953     11956     11959
     11955     11953     11956     11957     11955     11953     11956     11958
     11955     11953     11956     11959     11956     11959     11962     11963
     11956     11959     11962     11964     11956     11959     11962     11965
     11957     11956     11959     11960     11957     11956     11959     11961
     11957     11956     11959     11962     11958     11956     11959     11960
     11958     11956     11959     11961     11958     11956     11959     11962
     11959     11962     11965     11966     11959     11962     11965     11967
     11959     11962     11965     11968     11960     11959     11962     11963
     11960     11959     11962     11964     11960     11959     11962     11965
     11961     11959     11962     11963     11961     11959     11962     11964
     11961     11959     11962     11965     11963     11962     11965     11966
     11963     11962     11965     11967     11963     11962     11965     11968
     11964     11962     11965     11966     11964     11962     11965     11967
     11964     11962     11965     11968     11969     11973     11976     11977
     11969     11973     11976     11978     11969     11973     11976     11983
     11970     11969     11973     11974     11970     11969     11973     11975
     11970     11969     11973     11976     11971     11969     11973     11974
     11971     11969     11973     11975     11971     11969     11973     11976
     11972     11969     11973     11974     11972     11969     11973     11975
     11972     11969     11973     11976     11973     11976     11983     11979
     11974     11973     11976     11977     11974     11973     11976     11978
     11974     11973     11976     11983     11975     11973     11976     11977
     11975     11973     11976     11978     11975     11973     11976     11983
     11976     11983     11979     11980     11976     11983     11979     11981
     11976     11983     11979     11982     11977     11976     11983     11979
     11978     11976     11983     11979     11979     11982     11984     11985
     11979     11982     11984     11986     11979     11982     11984     11987
     11980     11979     11982     11984     11981     11979     11982     11984
     11982     11984     11987     11988     11982     11984     11987     11989
     11982     11984     11987     11995     11983     11979     11982     11984
     11984     11987     11989     11990     11984     11987     11995     11996
     11984     11987     11995     11997     11984     11987     11995     11998
     11985     11984     11987     11988     11985     11984     11987     11989
     11985     11984     11987     11995     11986     11984     11987     11988
     11986     11984     11987     11989     11986     11984     11987     11995
     11987     11989     11990     11991     11987     11989     11990     11992
     11987     11995     11998     11999     11988     11987     11989     11990
     11988     11987     11995     11996     11988     11987     11995     11997
     11988     11987     11995     11998     11989     11987     11995     11996
     11989     11987     11995     11997     11989     11987     11995     11998
     11989     11990     11992     11993     11989     11990     11992     11994
     11989     11990     11992     12004     11990     11989     11987     11995
     11990     11992     12004     12005     11990     11992     12004     12006
     11990     11992     12004     12007     11991     11990     11992     11993
     11991     11990     11992     11994     11991     11990     11992     12004
     11992     12004     12007     12008     11992     12004     12007     12009
     11992     12004     12007     12010     11993     11992     12004     12005
     11993     11992     12004     12006     11993     11992     12004     12007
     11994     11992     12004     12005     11994     11992     12004     12006
     11994     11992     12004     12007     11995     11998     11999     12000
     11995     11998     11999     12001     11996     11995     11998     11999
     11997     11995     11998     11999     11998     11999     12001     12002
     11998     11999     12001     12003     11998     11999     12001     12048
     11999     12001     12048     12049     11999     12001     12048     12050
     11999     12001     12048     12051     12000     11999     12001     12002
     12000     11999     12001     12003     12000     11999     12001     12048
     12001     12048     12051     12052     12001     12048     12051     12053
     12001     12048     12051     12054     12002     12001     12048     12049
     12002     12001     12048     12050     12002     12001     12048     12051
     12003     12001     12048     12049     12003     12001     12048     12050
     12003     12001     12048     12051     12004     12007     12010     12011
     12004     12007     12010     12012     12004     12007     12010     12013
     12005     12004     12007     12008     12005     12004     12007     12009
     12005     12004     12007     12010     12006     12004     12007     12008
     12006     12004     12007     12009     12006     12004     12007     12010
     12007     12010     12013     12014     12007     12010     12013     12015
     12007     12010     12013     12016     12008     12007     12010     12011
     12008     12007     12010     12012     12008     12007     12010     12013
     12009     12007     12010     12011     12009     12007     12010     12012
     12009     12007     12010     12013     12010     12013     12016     12017
     12010     12013     12016     12018     12010     12013     12016     12019
     12011     12010     12013     12014     12011     12010     12013     12015
     12011     12010     12013     12016     12012     12010     12013     12014
     12012     12010     12013     12015     12012     12010     12013     12016
     12013     12016     12019     12020     12013     12016     12019     12021
     12013     12016     12019     12022     12014     12013     12016     12017
     12014     12013     12016     12018     12014     12013     12016     12019
     12015     12013     12016     12017     12015     12013     12016     12018
     12015     12013     12016     12019     12016     12019     12022     12023
     12016     12019     12022     12024     12016     12019     12022     12027
     12017     12016     12019     12020     12017     12016     12019     12021
     12017     12016     12019     12022     12018     12016     12019     12020
     12018     12016     12019     12021     12018     12016     12019     12022
     12019     12022     12024     12025     12019     12022     12024     12026
     12019     12022     12024     12027     12019     12022     12027     12024
     12019     12022     12027     12028     12019     12022     12027     12029
     12020     12019     12022     12023     12020     12019     12022     12024
     12020     12019     12022     12027     12021     12019     12022     12023
     12021     12019     12022     12024     12021     12019     12022     12027
     12022     12024     12027     12028     12022     12024     12027     12029
     12022     12027     12024     12025     12022     12027     12024     12026
     12022     12027     12029     12030     12022     12027     12029     12031
     12022     12027     12029     12032     12023     12022     12024     12025
     12023     12022     12024     12026     12023     12022     12024     12027
     12023     12022     12027     12024     12023     12022     12027     12028
     12023     12022     12027     12029     12024     12022     12027     12028
     12024     12022     12027     12029     12024     12027     12029     12030
     12024     12027     12029     12031     12024     12027     12029     12032
     12025     12024     12022     12027     12025     12024     12027     12028
     12025     12024     12027     12029     12026     12024     12022     12027
     12026     12024     12027     12028     12026     12024     12027     12029
     12027     12029     12032     12033     12027     12029     12032     12034
     12027     12029     12032     12035     12028     12027     12029     12030
     12028     12027     12029     12031     12028     12027     12029     12032
     12029     12032     12035     12036     12029     12032     12035     12037
     12029     12032     12035     12038     12030     12029     12032     12033
     12030     12029     12032     12034     12030     12029     12032     12035
     12031     12029     12032     12033     12031     12029     12032     12034
     12031     12029     12032     12035     12032     12035     12038     12039
     12032     12035     12038     12040     12032     12035     12038     12041
     12033     12032     12035     12036     12033     12032     12035     12037
     12033     12032     12035     12038     12034     12032     12035     12036
     12034     12032     12035     12037     12034     12032     12035     12038
     12035     12038     12041     12042     12035     12038     12041     12043
     12035     12038     12041     12044     12036     12035     12038     12039
     12036     12035     12038     12040     12036     12035     12038     12041
     12037     12035     12038     12039     12037     12035     12038     12040
     12037     12035     12038     12041     12038     12041     12044     12045
     12038     12041     12044     12046     12038     12041     12044     12047
     12039     12038     12041     12042     12039     12038     12041     12043
     12039     12038     12041     12044     12040     12038     12041     12042
     12040     12038     12041     12043     12040     12038     12041     12044
     12042     12041     12044     12045     12042     12041     12044     12046
     12042     12041     12044     12047     12043     12041     12044     12045
     12043     12041     12044     12046     12043     12041     12044     12047
     12048     12051     12054     12055     12048     12051     12054     12056
     12048     12051     12054     12057     12049     12048     12051     12052
     12049     12048     12051     12053     12049     12048     12051     12054
     12050     12048     12051     12052     12050     12048     12051     12053
     12050     12048     12051     12054     12051     12054     12057     12058
     12051     12054     12057     12059     12051     12054     12057     12060
     12052     12051     12054     12055     12052     12051     12054     12056
     12052     12051     12054     12057     12053     12051     12054     12055
     12053     12051     12054     12056     12053     12051     12054     12057
     12054     12057     12060     12061     12054     12057     12060     12062
     12054     12057     12060     12063     12055     12054     12057     12058
     12055     12054     12057     12059     12055     12054     12057     12060
     12056     12054     12057     12058     12056     12054     12057     12059
     12056     12054     12057     12060     12057     12060     12063     12064
     12057     12060     12063     12065     12057     12060     12063     12066
     12058     12057     12060     12061     12058     12057     12060     12062
     12058     12057     12060     12063     12059     12057     12060     12061
     12059     12057     12060     12062     12059     12057     12060     12063
     12060     12063     12066     12067     12060     12063     12066     12068
     12060     12063     12066     12069     12061     12060     12063     12064
     12061     12060     12063     12065     12061     12060     12063     12066
     12062     12060     12063     12064     12062     12060     12063     12065
     12062     12060     12063     12066     12063     12066     12069     12070
     12063     12066     12069     12071     12063     12066     12069     12072
     12064     12063     12066     12067     12064     12063     12066     12068
     12064     12063     12066     12069     12065     12063     12066     12067
     12065     12063     12066     12068     12065     12063     12066     12069
     12066     12069     12072     12073     12066     12069     12072     12074
     12066     12069     12072     12075     12067     12066     12069     12070
     12067     12066     12069     12071     12067     12066     12069     12072
     12068     12066     12069     12070     12068     12066     12069     12071
     12068     12066     12069     12072     12069     12072     12075     12076
     12069     12072     12075     12077     12069     12072     12075     12078
     12070     12069     12072     12073     12070     12069     12072     12074
     12070     12069     12072     12075     12071     12069     12072     12073
     12071     12069     12072     12074     12071     12069     12072     12075
     12072     12075     12078     12079     12072     12075     12078     12080
     12072     12075     12078     12081     12073     12072     12075     12076
     12073     12072     12075     12077     12073     12072     12075     12078
     12074     12072     12075     12076     12074     12072     12075     12077
     12074     12072     12075     12078     12075     12078     12081     12082
     12075     12078     12081     12083     12075     12078     12081     12084
     12076     12075     12078     12079     12076     12075     12078     12080
     12076     12075     12078     12081     12077     12075     12078     12079
     12077     12075     12078     12080     12077     12075     12078     12081
     12078     12081     12084     12085     12078     12081     12084     12086
     12078     12081     12084     12087     12079     12078     12081     12082
     12079     12078     12081     12083     12079     12078     12081     12084
     12080     12078     12081     12082     12080     12078     12081     12083
     12080     12078     12081     12084     12082     12081     12084     12085
     12082     12081     12084     12086     12082     12081     12084     12087
     12083     12081     12084     12085     12083     12081     12084     12086
     12083     12081     12084     12087     12088     12093     12095     12096
     12088     12093     12097     12098     12088     12093     12097     12099
     12088     12093     12097     12104     12089     12088     12091     12092
     12089     12088     12093     12094     12089     12088     12093     12095
     12089     12088     12093     12097     12090     12088     12091     12092
     12090     12088     12093     12094     12090     12088     12093     12095
     12090     12088     12093     12097     12091     12088     12093     12094
     12091     12088     12093     12095     12091     12088     12093     12097
     12092     12091     12088     12093     12093     12097     12104     12100
     12094     12093     12095     12096     12094     12093     12097     12098
     12094     12093     12097     12099     12094     12093     12097     12104
     12095     12093     12097     12098     12095     12093     12097     12099
     12095     12093     12097     12104     12096     12095     12093     12097
     12097     12104     12100     12101     12097     12104     12100     12102
     12097     12104     12100     12103     12098     12097     12104     12100
     12099     12097     12104     12100     12100     12103     12105     12106
     12100     12103     12105     12107     12100     12103     12105     12108
     12101     12100     12103     12105     12102     12100     12103     12105
     12103     12105     12108     12109     12103     12105     12108     12110
     12103     12105     12108     12116     12104     12100     12103     12105
     12105     12108     12110     12111     12105     12108     12116     12117
     12105     12108     12116     12118     12105     12108     12116     12119
     12106     12105     12108     12109     12106     12105     12108     12110
     12106     12105     12108     12116     12107     12105     12108     12109
     12107     12105     12108     12110     12107     12105     12108     12116
     12108     12110     12111     12112     12108     12110     12111     12113
     12108     12116     12119     12120     12109     12108     12110     12111
     12109     12108     12116     12117     12109     12108     12116     12118
     12109     12108     12116     12119     12110     12108     12116     12117
     12110     12108     12116     12118     12110     12108     12116     12119
     12110     12111     12113     12114     12110     12111     12113     12115
     12110     12111     12113     12125     12111     12110     12108     12116
     12111     12113     12125     12126     12111     12113     12125     12127
     12111     12113     12125     12128     12112     12111     12113     12114
     12112     12111     12113     12115     12112     12111     12113     12125
     12113     12125     12128     12129     12113     12125     12128     12130
     12113     12125     12128     12131     12114     12113     12125     12126
     12114     12113     12125     12127     12114     12113     12125     12128
     12115     12113     12125     12126     12115     12113     12125     12127
     12115     12113     12125     12128     12116     12119     12120     12121
     12116     12119     12120     12122     12117     12116     12119     12120
     12118     12116     12119     12120     12119     12120     12122     12123
     12119     12120     12122     12124     12119     12120     12122     12166
     12120     12122     12166     12167     12120     12122     12166     12168
     12120     12122     12166     12169     12121     12120     12122     12123
     12121     12120     12122     12124     12121     12120     12122     12166
     12122     12166     12169     12170     12122     12166     12169     12171
     12122     12166     12169     12172     12123     12122     12166     12167
     12123     12122     12166     12168     12123     12122     12166     12169
     12124     12122     12166     12167     12124     12122     12166     12168
     12124     12122     12166     12169     12125     12128     12131     12132
     12125     12128     12131     12133     12125     12128     12131     12134
     12126     12125     12128     12129     12126     12125     12128     12130
     12126     12125     12128     12131     12127     12125     12128     12129
     12127     12125     12128     12130     12127     12125     12128     12131
     12128     12131     12134     12135     12128     12131     12134     12136
     12128     12131     12134     12137     12129     12128     12131     12132
     12129     12128     12131     12133     12129     12128     12131     12134
     12130     12128     12131     12132     12130     12128     12131     12133
     12130     12128     12131     12134     12131     12134     12137     12138
     12131     12134     12137     12139     12131     12134     12137     12140
     12132     12131     12134     12135     12132     12131     12134     12136
     12132     12131     12134     12137     12133     12131     12134     12135
     12133     12131     12134     12136     12133     12131     12134     12137
     12134     12137     12140     12141     12134     12137     12140     12142
     12134     12137     12140     12143     12135     12134     12137     12138
     12135     12134     12137     12139     12135     12134     12137     12140
     12136     12134     12137     12138     12136     12134     12137     12139
     12136     12134     12137     12140     12137     12140     12143     12144
     12137     12140     12143     12145     12138     12137     12140     12141
     12138     12137     12140     12142     12138     12137     12140     12143
     12139     12137     12140     12141     12139     12137     12140     12142
     12139     12137     12140     12143     12140     12143     12145     12146
     12140     12143     12145     12147     12141     12140     12143     12144
     12141     12140     12143     12145     12142     12140     12143     12144
     12142     12140     12143     12145     12143     12145     12147     12148
     12143     12145     12147     12149     12143     12145     12147     12150
     12144     12143     12145     12146     12144     12143     12145     12147
     12145     12147     12150     12151     12145     12147     12150     12152
     12145     12147     12150     12153     12146     12145     12147     12148
     12146     12145     12147     12149     12146     12145     12147     12150
     12147     12150     12153     12154     12147     12150     12153     12155
     12147     12150     12153     12156     12148     12147     12150     12151
     12148     12147     12150     12152     12148     12147     12150     12153
     12149     12147     12150     12151     12149     12147     12150     12152
     12149     12147     12150     12153     12150     12153     12156     12157
     12150     12153     12156     12158     12150     12153     12156     12159
     12151     12150     12153     12154     12151     12150     12153     12155
     12151     12150     12153     12156     12152     12150     12153     12154
     12152     12150     12153     12155     12152     12150     12153     12156
     12153     12156     12159     12160     12153     12156     12159     12161
     12153     12156     12159     12162     12154     12153     12156     12157
     12154     12153     12156     12158     12154     12153     12156     12159
     12155     12153     12156     12157     12155     12153     12156     12158
     12155     12153     12156     12159     12156     12159     12162     12163
     12156     12159     12162     12164     12156     12159     12162     12165
     12157     12156     12159     12160     12157     12156     12159     12161
     12157     12156     12159     12162     12158     12156     12159     12160
     12158     12156     12159     12161     12158     12156     12159     12162
     12160     12159     12162     12163     12160     12159     12162     12164
     12160     12159     12162     12165     12161     12159     12162     12163
     12161     12159     12162     12164     12161     12159     12162     12165
     12166     12169     12172     12173     12166     12169     12172     12174
     12166     12169     12172     12175     12167     12166     12169     12170
     12167     12166     12169     12171     12167     12166     12169     12172
     12168     12166     12169     12170     12168     12166     12169     12171
     12168     12166     12169     12172     12169     12172     12175     12176
     12169     12172     12175     12177     12169     12172     12175     12178
     12170     12169     12172     12173     12170     12169     12172     12174
     12170     12169     12172     12175     12171     12169     12172     12173
     12171     12169     12172     12174     12171     12169     12172     12175
     12172     12175     12178     12179     12172     12175     12178     12180
     12172     12175     12178     12181     12173     12172     12175     12176
     12173     12172     12175     12177     12173     12172     12175     12178
     12174     12172     12175     12176     12174     12172     12175     12177
     12174     12172     12175     12178     12175     12178     12181     12182
     12175     12178     12181     12183     12175     12178     12181     12184
     12176     12175     12178     12179     12176     12175     12178     12180
     12176     12175     12178     12181     12177     12175     12178     12179
     12177     12175     12178     12180     12177     12175     12178     12181
     12178     12181     12184     12185     12178     12181     12184     12186
     12178     12181     12184     12187     12179     12178     12181     12182
     12179     12178     12181     12183     12179     12178     12181     12184
     12180     12178     12181     12182     12180     12178     12181     12183
     12180     12178     12181     12184     12181     12184     12187     12188
     12181     12184     12187     12189     12181     12184     12187     12190
     12182     12181     12184     12185     12182     12181     12184     12186
     12182     12181     12184     12187     12183     12181     12184     12185
     12183     12181     12184     12186     12183     12181     12184     12187
     12184     12187     12190     12191     12184     12187     12190     12192
     12184     12187     12190     12193     12185     12184     12187     12188
     12185     12184     12187     12189     12185     12184     12187     12190
     12186     12184     12187     12188     12186     12184     12187     12189
     12186     12184     12187     12190     12187     12190     12193     12194
     12187     12190     12193     12195     12187     12190     12193     12196
     12188     12187     12190     12191     12188     12187     12190     12192
     12188     12187     12190     12193     12189     12187     12190     12191
     12189     12187     12190     12192     12189     12187     12190     12193
     12190     12193     12196     12197     12190     12193     12196     12198
     12190     12193     12196     12199     12191     12190     12193     12194
     12191     12190     12193     12195     12191     12190     12193     12196
     12192     12190     12193     12194     12192     12190     12193     12195
     12192     12190     12193     12196     12193     12196     12199     12200
     12193     12196     12199     12201     12193     12196     12199     12202
     12194     12193     12196     12197     12194     12193     12196     12198
     12194     12193     12196     12199     12195     12193     12196     12197
     12195     12193     12196     12198     12195     12193     12196     12199
     12196     12199     12202     12203     12196     12199     12202     12204
     12196     12199     12202     12205     12197     12196     12199     12200
     12197     12196     12199     12201     12197     12196     12199     12202
     12198     12196     12199     12200     12198     12196     12199     12201
     12198     12196     12199     12202     12199     12202     12205     12206
     12199     12202     12205     12207     12199     12202     12205     12208
     12200     12199     12202     12203     12200     12199     12202     12204
     12200     12199     12202     12205     12201     12199     12202     12203
     12201     12199     12202     12204     12201     12199     12202     12205
     12203     12202     12205     12206     12203     12202     12205     12207
     12203     12202     12205     12208     12204     12202     12205     12206
     12204     12202     12205     12207     12204     12202     12205     12208
     12209     12213     12216     12217     12209     12213     12216     12218
     12209     12213     12216     12223     12210     12209     12213     12214
     12210     12209     12213     12215     12210     12209     12213     12216
     12211     12209     12213     12214     12211     12209     12213     12215
     12211     12209     12213     12216     12212     12209     12213     12214
     12212     12209     12213     12215     12212     12209     12213     12216
     12213     12216     12223     12219     12214     12213     12216     12217
     12214     12213     12216     12218     12214     12213     12216     12223
     12215     12213     12216     12217     12215     12213     12216     12218
     12215     12213     12216     12223     12216     12223     12219     12220
     12216     12223     12219     12221     12216     12223     12219     12222
     12217     12216     12223     12219     12218     12216     12223     12219
     12219     12222     12224     12225     12219     12222     12224     12226
     12219     12222     12224     12227     12220     12219     12222     12224
     12221     12219     12222     12224     12222     12224     12227     12228
     12222     12224     12227     12229     12222     12224     12227     12235
     12223     12219     12222     12224     12224     12227     12229     12230
     12224     12227     12235     12236     12224     12227     12235     12237
     12224     12227     12235     12238     12225     12224     12227     12228
     12225     12224     12227     12229     12225     12224     12227     12235
     12226     12224     12227     12228     12226     12224     12227     12229
     12226     12224     12227     12235     12227     12229     12230     12231
     12227     12229     12230     12232     12227     12235     12238     12239
     12228     12227     12229     12230     12228     12227     12235     12236
     12228     12227     12235     12237     12228     12227     12235     12238
     12229     12227     12235     12236     12229     12227     12235     12237
     12229     12227     12235     12238     12229     12230     12232     12233
     12229     12230     12232     12234     12229     12230     12232     12244
     12230     12229     12227     12235     12230     12232     12244     12245
     12230     12232     12244     12246     12230     12232     12244     12247
     12231     12230     12232     12233     12231     12230     12232     12234
     12231     12230     12232     12244     12232     12244     12247     12248
     12232     12244     12247     12249     12232     12244     12247     12250
     12233     12232     12244     12245     12233     12232     12244     12246
     12233     12232     12244     12247     12234     12232     12244     12245
     12234     12232     12244     12246     12234     12232     12244     12247
     12235     12238     12239     12240     12235     12238     12239     12241
     12236     12235     12238     12239     12237     12235     12238     12239
     12238     12239     12241     12242     12238     12239     12241     12243
     12238     12239     12241     12291     12239     12241     12291     12292
     12239     12241     12291     12293     12239     12241     12291     12294
     12240     12239     12241     12242     12240     12239     12241     12243
     12240     12239     12241     12291     12241     12291     12294     12295
     12241     12291     12294     12296     12241     12291     12294     12297
     12242     12241     12291     12292     12242     12241     12291     12293
     12242     12241     12291     12294     12243     12241     12291     12292
     12243     12241     12291     12293     12243     12241     12291     12294
     12244     12247     12250     12251     12244     12247     12250     12252
     12244     12247     12250     12253     12245     12244     12247     12248
     12245     12244     12247     12249     12245     12244     12247     12250
     12246     12244     12247     12248     12246     12244     12247     12249
     12246     12244     12247     12250     12247     12250     12253     12254
     12247     12250     12253     12255     12247     12250     12253     12256
     12248     12247     12250     12251     12248     12247     12250     12252
     12248     12247     12250     12253     12249     12247     12250     12251
     12249     12247     12250     12252     12249     12247     12250     12253
     12250     12253     12256     12257     12250     12253     12256     12258
     12250     12253     12256     12259     12251     12250     12253     12254
     12251     12250     12253     12255     12251     12250     12253     12256
     12252     12250     12253     12254     12252     12250     12253     12255
     12252     12250     12253     12256     12253     12256     12259     12260
     12253     12256     12259     12261     12253     12256     12259     12262
     12254     12253     12256     12257     12254     12253     12256     12258
     12254     12253     12256     12259     12255     12253     12256     12257
     12255     12253     12256     12258     12255     12253     12256     12259
     12256     12259     12262     12263     12256     12259     12262     12264
     12257     12256     12259     12260     12257     12256     12259     12261
     12257     12256     12259     12262     12258     12256     12259     12260
     12258     12256     12259     12261     12258     12256     12259     12262
     12259     12262     12264     12265     12259     12262     12264     12266
     12260     12259     12262     12263     12260     12259     12262     12264
     12261     12259     12262     12263     12261     12259     12262     12264
     12262     12264     12266     12267     12262     12264     12266     12268
     12262     12264     12266     12269     12263     12262     12264     12265
     12263     12262     12264     12266     12264     12266     12269     12270
     12264     12266     12269     12271     12264     12266     12269     12272
     12265     12264     12266     12267     12265     12264     12266     12268
     12265     12264     12266     12269     12266     12269     12272     12273
     12266     12269     12272     12274     12266     12269     12272     12275
     12267     12266     12269     12270     12267     12266     12269     12271
     12267     12266     12269     12272     12268     12266     12269     12270
     12268     12266     12269     12271     12268     12266     12269     12272
     12269     12272     12275     12276     12269     12272     12275     12277
     12269     12272     12275     12278     12270     12269     12272     12273
     12270     12269     12272     12274     12270     12269     12272     12275
     12271     12269     12272     12273     12271     12269     12272     12274
     12271     12269     12272     12275     12272     12275     12278     12279
     12272     12275     12278     12280     12272     12275     12278     12281
     12273     12272     12275     12276     12273     12272     12275     12277
     12273     12272     12275     12278     12274     12272     12275     12276
     12274     12272     12275     12277     12274     12272     12275     12278
     12275     12278     12281     12282     12275     12278     12281     12283
     12275     12278     12281     12284     12276     12275     12278     12279
     12276     12275     12278     12280     12276     12275     12278     12281
     12277     12275     12278     12279     12277     12275     12278     12280
     12277     12275     12278     12281     12278     12281     12284     12285
     12278     12281     12284     12286     12278     12281     12284     12287
     12279     12278     12281     12282     12279     12278     12281     12283
     12279     12278     12281     12284     12280     12278     12281     12282
     12280     12278     12281     12283     12280     12278     12281     12284
     12281     12284     12287     12288     12281     12284     12287     12289
     12281     12284     12287     12290     12282     12281     12284     12285
     12282     12281     12284     12286     12282     12281     12284     12287
     12283     12281     12284     12285     12283     12281     12284     12286
     12283     12281     12284     12287     12285     12284     12287     12288
     12285     12284     12287     12289     12285     12284     12287     12290
     12286     12284     12287     12288     12286     12284     12287     12289
     12286     12284     12287     12290     12291     12294     12297     12298
     12291     12294     12297     12299     12291     12294     12297     12300
     12292     12291     12294     12295     12292     12291     12294     12296
     12292     12291     12294     12297     12293     12291     12294     12295
     12293     12291     12294     12296     12293     12291     12294     12297
     12294     12297     12300     12301     12294     12297     12300     12302
     12294     12297     12300     12303     12295     12294     12297     12298
     12295     12294     12297     12299     12295     12294     12297     12300
     12296     12294     12297     12298     12296     12294     12297     12299
     12296     12294     12297     12300     12297     12300     12303     12304
     12297     12300     12303     12305     12297     12300     12303     12306
     12298     12297     12300     12301     12298     12297     12300     12302
     12298     12297     12300     12303     12299     12297     12300     12301
     12299     12297     12300     12302     12299     12297     12300     12303
     12300     12303     12306     12307     12300     12303     12306     12308
     12300     12303     12306     12309     12301     12300     12303     12304
     12301     12300     12303     12305     12301     12300     12303     12306
     12302     12300     12303     12304     12302     12300     12303     12305
     12302     12300     12303     12306     12303     12306     12309     12310
     12303     12306     12309     12311     12303     12306     12309     12312
     12304     12303     12306     12307     12304     12303     12306     12308
     12304     12303     12306     12309     12305     12303     12306     12307
     12305     12303     12306     12308     12305     12303     12306     12309
     12306     12309     12312     12313     12306     12309     12312     12314
     12306     12309     12312     12315     12307     12306     12309     12310
     12307     12306     12309     12311     12307     12306     12309     12312
     12308     12306     12309     12310     12308     12306     12309     12311
     12308     12306     12309     12312     12309     12312     12315     12316
     12309     12312     12315     12317     12309     12312     12315     12318
     12310     12309     12312     12313     12310     12309     12312     12314
     12310     12309     12312     12315     12311     12309     12312     12313
     12311     12309     12312     12314     12311     12309     12312     12315
     12312     12315     12318     12319     12312     12315     12318     12320
     12312     12315     12318     12321     12313     12312     12315     12316
     12313     12312     12315     12317     12313     12312     12315     12318
     12314     12312     12315     12316     12314     12312     12315     12317
     12314     12312     12315     12318     12315     12318     12321     12322
     12315     12318     12321     12323     12315     12318     12321     12324
     12316     12315     12318     12319     12316     12315     12318     12320
     12316     12315     12318     12321     12317     12315     12318     12319
     12317     12315     12318     12320     12317     12315     12318     12321
     12318     12321     12324     12325     12318     12321     12324     12326
     12318     12321     12324     12327     12319     12318     12321     12322
     12319     12318     12321     12323     12319     12318     12321     12324
     12320     12318     12321     12322     12320     12318     12321     12323
     12320     12318     12321     12324     12321     12324     12327     12328
     12321     12324     12327     12329     12321     12324     12327     12330
     12322     12321     12324     12325     12322     12321     12324     12326
     12322     12321     12324     12327     12323     12321     12324     12325
     12323     12321     12324     12326     12323     12321     12324     12327
     12324     12327     12330     12331     12324     12327     12330     12332
     12324     12327     12330     12333     12325     12324     12327     12328
     12325     12324     12327     12329     12325     12324     12327     12330
     12326     12324     12327     12328     12326     12324     12327     12329
     12326     12324     12327     12330     12328     12327     12330     12331
     12328     12327     12330     12332     12328     12327     12330     12333
     12329     12327     12330     12331     12329     12327     12330     12332
     12329     12327     12330     12333     12334     12338     12341     12342
     12334     12338     12341     12343     12334     12338     12341     12348
     12335     12334     12338     12339     12335     12334     12338     12340
     12335     12334     12338     12341     12336     12334     12338     12339
     12336     12334     12338     12340     12336     12334     12338     12341
     12337     12334     12338     12339     12337     12334     12338     12340
     12337     12334     12338     12341     12338     12341     12348     12344
     12339     12338     12341     12342     12339     12338     12341     12343
     12339     12338     12341     12348     12340     12338     12341     12342
     12340     12338     12341     12343     12340     12338     12341     12348
     12341     12348     12344     12345     12341     12348     12344     12346
     12341     12348     12344     12347     12342     12341     12348     12344
     12343     12341     12348     12344     12344     12347     12349     12350
     12344     12347     12349     12351     12344     12347     12349     12352
     12345     12344     12347     12349     12346     12344     12347     12349
     12347     12349     12352     12353     12347     12349     12352     12354
     12347     12349     12352     12360     12348     12344     12347     12349
     12349     12352     12354     12355     12349     12352     12360     12361
     12349     12352     12360     12362     12349     12352     12360     12363
     12350     12349     12352     12353     12350     12349     12352     12354
     12350     12349     12352     12360     12351     12349     12352     12353
     12351     12349     12352     12354     12351     12349     12352     12360
     12352     12354     12355     12356     12352     12354     12355     12357
     12352     12360     12363     12364     12353     12352     12354     12355
     12353     12352     12360     12361     12353     12352     12360     12362
     12353     12352     12360     12363     12354     12352     12360     12361
     12354     12352     12360     12362     12354     12352     12360     12363
     12354     12355     12357     12358     12354     12355     12357     12359
     12354     12355     12357     12369     12355     12354     12352     12360
     12355     12357     12369     12370     12355     12357     12369     12371
     12355     12357     12369     12372     12356     12355     12357     12358
     12356     12355     12357     12359     12356     12355     12357     12369
     12357     12369     12372     12373     12357     12369     12372     12374
     12357     12369     12372     12375     12358     12357     12369     12370
     12358     12357     12369     12371     12358     12357     12369     12372
     12359     12357     12369     12370     12359     12357     12369     12371
     12359     12357     12369     12372     12360     12363     12364     12365
     12360     12363     12364     12366     12361     12360     12363     12364
     12362     12360     12363     12364     12363     12364     12366     12367
     12363     12364     12366     12368     12363     12364     12366     12416
     12364     12366     12416     12417     12364     12366     12416     12418
     12364     12366     12416     12419     12365     12364     12366     12367
     12365     12364     12366     12368     12365     12364     12366     12416
     12366     12416     12419     12420     12366     12416     12419     12421
     12366     12416     12419     12422     12367     12366     12416     12417
     12367     12366     12416     12418     12367     12366     12416     12419
     12368     12366     12416     12417     12368     12366     12416     12418
     12368     12366     12416     12419     12369     12372     12375     12376
     12369     12372     12375     12377     12369     12372     12375     12378
     12370     12369     12372     12373     12370     12369     12372     12374
     12370     12369     12372     12375     12371     12369     12372     12373
     12371     12369     12372     12374     12371     12369     12372     12375
     12372     12375     12378     12379     12372     12375     12378     12380
     12372     12375     12378     12381     12373     12372     12375     12376
     12373     12372     12375     12377     12373     12372     12375     12378
     12374     12372     12375     12376     12374     12372     12375     12377
     12374     12372     12375     12378     12375     12378     12381     12382
     12375     12378     12381     12383     12375     12378     12381     12384
     12376     12375     12378     12379     12376     12375     12378     12380
     12376     12375     12378     12381     12377     12375     12378     12379
     12377     12375     12378     12380     12377     12375     12378     12381
     12378     12381     12384     12385     12378     12381     12384     12386
     12378     12381     12384     12387     12379     12378     12381     12382
     12379     12378     12381     12383     12379     12378     12381     12384
     12380     12378     12381     12382     12380     12378     12381     12383
     12380     12378     12381     12384     12381     12384     12387     12388
     12381     12384     12387     12389     12382     12381     12384     12385
     12382     12381     12384     12386     12382     12381     12384     12387
     12383     12381     12384     12385     12383     12381     12384     12386
     12383     12381     12384     12387     12384     12387     12389     12390
     12384     12387     12389     12391     12385     12384     12387     12388
     12385     12384     12387     12389     12386     12384     12387     12388
     12386     12384     12387     12389     12387     12389     12391     12392
     12387     12389     12391     12393     12387     12389     12391     12394
     12388     12387     12389     12390     12388     12387     12389     12391
     12389     12391     12394     12395     12389     12391     12394     12396
     12389     12391     12394     12397     12390     12389     12391     12392
     12390     12389     12391     12393     12390     12389     12391     12394
     12391     12394     12397     12398     12391     12394     12397     12399
     12391     12394     12397     12400     12392     12391     12394     12395
     12392     12391     12394     12396     12392     12391     12394     12397
     12393     12391     12394     12395     12393     12391     12394     12396
     12393     12391     12394     12397     12394     12397     12400     12401
     12394     12397     12400     12402     12394     12397     12400     12403
     12395     12394     12397     12398     12395     12394     12397     12399
     12395     12394     12397     12400     12396     12394     12397     12398
     12396     12394     12397     12399     12396     12394     12397     12400
     12397     12400     12403     12404     12397     12400     12403     12405
     12397     12400     12403     12406     12398     12397     12400     12401
     12398     12397     12400     12402     12398     12397     12400     12403
     12399     12397     12400     12401     12399     12397     12400     12402
     12399     12397     12400     12403     12400     12403     12406     12407
     12400     12403     12406     12408     12400     12403     12406     12409
     12401     12400     12403     12404     12401     12400     12403     12405
     12401     12400     12403     12406     12402     12400     12403     12404
     12402     12400     12403     12405     12402     12400     12403     12406
     12403     12406     12409     12410     12403     12406     12409     12411
     12403     12406     12409     12412     12404     12403     12406     12407
     12404     12403     12406     12408     12404     12403     12406     12409
     12405     12403     12406     12407     12405     12403     12406     12408
     12405     12403     12406     12409     12406     12409     12412     12413
     12406     12409     12412     12414     12406     12409     12412     12415
     12407     12406     12409     12410     12407     12406     12409     12411
     12407     12406     12409     12412     12408     12406     12409     12410
     12408     12406     12409     12411     12408     12406     12409     12412
     12410     12409     12412     12413     12410     12409     12412     12414
     12410     12409     12412     12415     12411     12409     12412     12413
     12411     12409     12412     12414     12411     12409     12412     12415
     12416     12419     12422     12423     12416     12419     12422     12424
     12416     12419     12422     12425     12417     12416     12419     12420
     12417     12416     12419     12421     12417     12416     12419     12422
     12418     12416     12419     12420     12418     12416     12419     12421
     12418     12416     12419     12422     12419     12422     12425     12426
     12419     12422     12425     12427     12419     12422     12425     12428
     12420     12419     12422     12423     12420     12419     12422     12424
     12420     12419     12422     12425     12421     12419     12422     12423
     12421     12419     12422     12424     12421     12419     12422     12425
     12422     12425     12428     12429     12422     12425     12428     12430
     12422     12425     12428     12431     12423     12422     12425     12426
     12423     12422     12425     12427     12423     12422     12425     12428
     12424     12422     12425     12426     12424     12422     12425     12427
     12424     12422     12425     12428     12425     12428     12431     12432
     12425     12428     12431     12433     12425     12428     12431     12434
     12426     12425     12428     12429     12426     12425     12428     12430
     12426     12425     12428     12431     12427     12425     12428     12429
     12427     12425     12428     12430     12427     12425     12428     12431
     12428     12431     12434     12435     12428     12431     12434     12436
     12428     12431     12434     12437     12429     12428     12431     12432
     12429     12428     12431     12433     12429     12428     12431     12434
     12430     12428     12431     12432     12430     12428     12431     12433
     12430     12428     12431     12434     12431     12434     12437     12438
     12431     12434     12437     12439     12431     12434     12437     12440
     12432     12431     12434     12435     12432     12431     12434     12436
     12432     12431     12434     12437     12433     12431     12434     12435
     12433     12431     12434     12436     12433     12431     12434     12437
     12434     12437     12440     12441     12434     12437     12440     12442
     12434     12437     12440     12443     12435     12434     12437     12438
     12435     12434     12437     12439     12435     12434     12437     12440
     12436     12434     12437     12438     12436     12434     12437     12439
     12436     12434     12437     12440     12437     12440     12443     12444
     12437     12440     12443     12445     12437     12440     12443     12446
     12438     12437     12440     12441     12438     12437     12440     12442
     12438     12437     12440     12443     12439     12437     12440     12441
     12439     12437     12440     12442     12439     12437     12440     12443
     12440     12443     12446     12447     12440     12443     12446     12448
     12440     12443     12446     12449     12441     12440     12443     12444
     12441     12440     12443     12445     12441     12440     12443     12446
     12442     12440     12443     12444     12442     12440     12443     12445
     12442     12440     12443     12446     12443     12446     12449     12450
     12443     12446     12449     12451     12443     12446     12449     12452
     12444     12443     12446     12447     12444     12443     12446     12448
     12444     12443     12446     12449     12445     12443     12446     12447
     12445     12443     12446     12448     12445     12443     12446     12449
     12446     12449     12452     12453     12446     12449     12452     12454
     12446     12449     12452     12455     12447     12446     12449     12450
     12447     12446     12449     12451     12447     12446     12449     12452
     12448     12446     12449     12450     12448     12446     12449     12451
     12448     12446     12449     12452     12449     12452     12455     12456
     12449     12452     12455     12457     12449     12452     12455     12458
     12450     12449     12452     12453     12450     12449     12452     12454
     12450     12449     12452     12455     12451     12449     12452     12453
     12451     12449     12452     12454     12451     12449     12452     12455
     12453     12452     12455     12456     12453     12452     12455     12457
     12453     12452     12455     12458     12454     12452     12455     12456
     12454     12452     12455     12457     12454     12452     12455     12458
     12459     12464     12466     12467     12459     12464     12468     12469
     12459     12464     12468     12470     12459     12464     12468     12475
     12460     12459     12462     12463     12460     12459     12464     12465
     12460     12459     12464     12466     12460     12459     12464     12468
     12461     12459     12462     12463     12461     12459     12464     12465
     12461     12459     12464     12466     12461     12459     12464     12468
     12462     12459     12464     12465     12462     12459     12464     12466
     12462     12459     12464     12468     12463     12462     12459     12464
     12464     12468     12475     12471     12465     12464     12466     12467
     12465     12464     12468     12469     12465     12464     12468     12470
     12465     12464     12468     12475     12466     12464     12468     12469
     12466     12464     12468     12470     12466     12464     12468     12475
     12467     12466     12464     12468     12468     12475     12471     12472
     12468     12475     12471     12473     12468     12475     12471     12474
     12469     12468     12475     12471     12470     12468     12475     12471
     12471     12474     12476     12477     12471     12474     12476     12478
     12471     12474     12476     12479     12472     12471     12474     12476
     12473     12471     12474     12476     12474     12476     12479     12480
     12474     12476     12479     12481     12474     12476     12479     12487
     12475     12471     12474     12476     12476     12479     12481     12482
     12476     12479     12487     12488     12476     12479     12487     12489
     12476     12479     12487     12490     12477     12476     12479     12480
     12477     12476     12479     12481     12477     12476     12479     12487
     12478     12476     12479     12480     12478     12476     12479     12481
     12478     12476     12479     12487     12479     12481     12482     12483
     12479     12481     12482     12484     12479     12487     12490     12491
     12480     12479     12481     12482     12480     12479     12487     12488
     12480     12479     12487     12489     12480     12479     12487     12490
     12481     12479     12487     12488     12481     12479     12487     12489
     12481     12479     12487     12490     12481     12482     12484     12485
     12481     12482     12484     12486     12481     12482     12484     12496
     12482     12481     12479     12487     12482     12484     12496     12497
     12482     12484     12496     12498     12482     12484     12496     12499
     12483     12482     12484     12485     12483     12482     12484     12486
     12483     12482     12484     12496     12484     12496     12499     12500
     12484     12496     12499     12501     12484     12496     12499     12502
     12485     12484     12496     12497     12485     12484     12496     12498
     12485     12484     12496     12499     12486     12484     12496     12497
     12486     12484     12496     12498     12486     12484     12496     12499
     12487     12490     12491     12492     12487     12490     12491     12493
     12488     12487     12490     12491     12489     12487     12490     12491
     12490     12491     12493     12494     12490     12491     12493     12495
     12490     12491     12493     12540     12491     12493     12540     12541
     12491     12493     12540     12542     12491     12493     12540     12543
     12492     12491     12493     12494     12492     12491     12493     12495
     12492     12491     12493     12540     12493     12540     12543     12544
     12493     12540     12543     12545     12493     12540     12543     12546
     12494     12493     12540     12541     12494     12493     12540     12542
     12494     12493     12540     12543     12495     12493     12540     12541
     12495     12493     12540     12542     12495     12493     12540     12543
     12496     12499     12502     12503     12496     12499     12502     12504
     12496     12499     12502     12505     12497     12496     12499     12500
     12497     12496     12499     12501     12497     12496     12499     12502
     12498     12496     12499     12500     12498     12496     12499     12501
     12498     12496     12499     12502     12499     12502     12505     12506
     12499     12502     12505     12507     12499     12502     12505     12508
     12500     12499     12502     12503     12500     12499     12502     12504
     12500     12499     12502     12505     12501     12499     12502     12503
     12501     12499     12502     12504     12501     12499     12502     12505
     12502     12505     12508     12509     12502     12505     12508     12510
     12502     12505     12508     12511     12503     12502     12505     12506
     12503     12502     12505     12507     12503     12502     12505     12508
     12504     12502     12505     12506     12504     12502     12505     12507
     12504     12502     12505     12508     12505     12508     12511     12512
     12505     12508     12511     12513     12505     12508     12511     12514
     12506     12505     12508     12509     12506     12505     12508     12510
     12506     12505     12508     12511     12507     12505     12508     12509
     12507     12505     12508     12510     12507     12505     12508     12511
     12508     12511     12514     12515     12508     12511     12514     12516
     12508     12511     12514     12519     12509     12508     12511     12512
     12509     12508     12511     12513     12509     12508     12511     12514
     12510     12508     12511     12512     12510     12508     12511     12513
     12510     12508     12511     12514     12511     12514     12516     12517
     12511     12514     12516     12518     12511     12514     12516     12519
     12511     12514     12519     12516     12511     12514     12519     12520
     12511     12514     12519     12521     12512     12511     12514     12515
     12512     12511     12514     12516     12512     12511     12514     12519
     12513     12511     12514     12515     12513     12511     12514     12516
     12513     12511     12514     12519     12514     12516     12519     12520
     12514     12516     12519     12521     12514     12519     12516     12517
     12514     12519     12516     12518     12514     12519     12521     12522
     12514     12519     12521     12523     12514     12519     12521     12524
     12515     12514     12516     12517     12515     12514     12516     12518
     12515     12514     12516     12519     12515     12514     12519     12516
     12515     12514     12519     12520     12515     12514     12519     12521
     12516     12514     12519     12520     12516     12514     12519     12521
     12516     12519     12521     12522     12516     12519     12521     12523
     12516     12519     12521     12524     12517     12516     12514     12519
     12517     12516     12519     12520     12517     12516     12519     12521
     12518     12516     12514     12519     12518     12516     12519     12520
     12518     12516     12519     12521     12519     12521     12524     12525
     12519     12521     12524     12526     12519     12521     12524     12527
     12520     12519     12521     12522     12520     12519     12521     12523
     12520     12519     12521     12524     12521     12524     12527     12528
     12521     12524     12527     12529     12521     12524     12527     12530
     12522     12521     12524     12525     12522     12521     12524     12526
     12522     12521     12524     12527     12523     12521     12524     12525
     12523     12521     12524     12526     12523     12521     12524     12527
     12524     12527     12530     12531     12524     12527     12530     12532
     12524     12527     12530     12533     12525     12524     12527     12528
     12525     12524     12527     12529     12525     12524     12527     12530
     12526     12524     12527     12528     12526     12524     12527     12529
     12526     12524     12527     12530     12527     12530     12533     12534
     12527     12530     12533     12535     12527     12530     12533     12536
     12528     12527     12530     12531     12528     12527     12530     12532
     12528     12527     12530     12533     12529     12527     12530     12531
     12529     12527     12530     12532     12529     12527     12530     12533
     12530     12533     12536     12537     12530     12533     12536     12538
     12530     12533     12536     12539     12531     12530     12533     12534
     12531     12530     12533     12535     12531     12530     12533     12536
     12532     12530     12533     12534     12532     12530     12533     12535
     12532     12530     12533     12536     12534     12533     12536     12537
     12534     12533     12536     12538     12534     12533     12536     12539
     12535     12533     12536     12537     12535     12533     12536     12538
     12535     12533     12536     12539     12540     12543     12546     12547
     12540     12543     12546     12548     12540     12543     12546     12549
     12541     12540     12543     12544     12541     12540     12543     12545
     12541     12540     12543     12546     12542     12540     12543     12544
     12542     12540     12543     12545     12542     12540     12543     12546
     12543     12546     12549     12550     12543     12546     12549     12551
     12543     12546     12549     12552     12544     12543     12546     12547
     12544     12543     12546     12548     12544     12543     12546     12549
     12545     12543     12546     12547     12545     12543     12546     12548
     12545     12543     12546     12549     12546     12549     12552     12553
     12546     12549     12552     12554     12546     12549     12552     12555
     12547     12546     12549     12550     12547     12546     12549     12551
     12547     12546     12549     12552     12548     12546     12549     12550
     12548     12546     12549     12551     12548     12546     12549     12552
     12549     12552     12555     12556     12549     12552     12555     12557
     12549     12552     12555     12558     12550     12549     12552     12553
     12550     12549     12552     12554     12550     12549     12552     12555
     12551     12549     12552     12553     12551     12549     12552     12554
     12551     12549     12552     12555     12552     12555     12558     12559
     12552     12555     12558     12560     12552     12555     12558     12561
     12553     12552     12555     12556     12553     12552     12555     12557
     12553     12552     12555     12558     12554     12552     12555     12556
     12554     12552     12555     12557     12554     12552     12555     12558
     12555     12558     12561     12562     12555     12558     12561     12563
     12555     12558     12561     12564     12556     12555     12558     12559
     12556     12555     12558     12560     12556     12555     12558     12561
     12557     12555     12558     12559     12557     12555     12558     12560
     12557     12555     12558     12561     12558     12561     12564     12565
     12558     12561     12564     12566     12558     12561     12564     12567
     12559     12558     12561     12562     12559     12558     12561     12563
     12559     12558     12561     12564     12560     12558     12561     12562
     12560     12558     12561     12563     12560     12558     12561     12564
     12561     12564     12567     12568     12561     12564     12567     12569
     12561     12564     12567     12570     12562     12561     12564     12565
     12562     12561     12564     12566     12562     12561     12564     12567
     12563     12561     12564     12565     12563     12561     12564     12566
     12563     12561     12564     12567     12564     12567     12570     12571
     12564     12567     12570     12572     12564     12567     12570     12573
     12565     12564     12567     12568     12565     12564     12567     12569
     12565     12564     12567     12570     12566     12564     12567     12568
     12566     12564     12567     12569     12566     12564     12567     12570
     12567     12570     12573     12574     12567     12570     12573     12575
     12567     12570     12573     12576     12568     12567     12570     12571
     12568     12567     12570     12572     12568     12567     12570     12573
     12569     12567     12570     12571     12569     12567     12570     12572
     12569     12567     12570     12573     12570     12573     12576     12577
     12570     12573     12576     12578     12570     12573     12576     12579
     12571     12570     12573     12574     12571     12570     12573     12575
     12571     12570     12573     12576     12572     12570     12573     12574
     12572     12570     12573     12575     12572     12570     12573     12576
     12573     12576     12579     12580     12573     12576     12579     12581
     12573     12576     12579     12582     12574     12573     12576     12577
     12574     12573     12576     12578     12574     12573     12576     12579
     12575     12573     12576     12577     12575     12573     12576     12578
     12575     12573     12576     12579     12577     12576     12579     12580
     12577     12576     12579     12581     12577     12576     12579     12582
     12578     12576     12579     12580     12578     12576     12579     12581
     12578     12576     12579     12582     12583     12587     12590     12591
     12583     12587     12590     12592     12583     12587     12590     12597
     12584     12583     12587     12588     12584     12583     12587     12589
     12584     12583     12587     12590     12585     12583     12587     12588
     12585     12583     12587     12589     12585     12583     12587     12590
     12586     12583     12587     12588     12586     12583     12587     12589
     12586     12583     12587     12590     12587     12590     12597     12593
     12588     12587     12590     12591     12588     12587     12590     12592
     12588     12587     12590     12597     12589     12587     12590     12591
     12589     12587     12590     12592     12589     12587     12590     12597
     12590     12597     12593     12594     12590     12597     12593     12595
     12590     12597     12593     12596     12591     12590     12597     12593
     12592     12590     12597     12593     12593     12596     12598     12599
     12593     12596     12598     12600     12593     12596     12598     12601
     12594     12593     12596     12598     12595     12593     12596     12598
     12596     12598     12601     12602     12596     12598     12601     12603
     12596     12598     12601     12609     12597     12593     12596     12598
     12598     12601     12603     12604     12598     12601     12609     12610
     12598     12601     12609     12611     12598     12601     12609     12612
     12599     12598     12601     12602     12599     12598     12601     12603
     12599     12598     12601     12609     12600     12598     12601     12602
     12600     12598     12601     12603     12600     12598     12601     12609
     12601     12603     12604     12605     12601     12603     12604     12606
     12601     12609     12612     12613     12602     12601     12603     12604
     12602     12601     12609     12610     12602     12601     12609     12611
     12602     12601     12609     12612     12603     12601     12609     12610
     12603     12601     12609     12611     12603     12601     12609     12612
     12603     12604     12606     12607     12603     12604     12606     12608
     12603     12604     12606     12618     12604     12603     12601     12609
     12604     12606     12618     12619     12604     12606     12618     12620
     12604     12606     12618     12621     12605     12604     12606     12607
     12605     12604     12606     12608     12605     12604     12606     12618
     12606     12618     12621     12622     12606     12618     12621     12623
     12606     12618     12621     12624     12607     12606     12618     12619
     12607     12606     12618     12620     12607     12606     12618     12621
     12608     12606     12618     12619     12608     12606     12618     12620
     12608     12606     12618     12621     12609     12612     12613     12614
     12609     12612     12613     12615     12610     12609     12612     12613
     12611     12609     12612     12613     12612     12613     12615     12616
     12612     12613     12615     12617     12612     12613     12615     12665
     12613     12615     12665     12666     12613     12615     12665     12667
     12613     12615     12665     12668     12614     12613     12615     12616
     12614     12613     12615     12617     12614     12613     12615     12665
     12615     12665     12668     12669     12615     12665     12668     12670
     12615     12665     12668     12671     12616     12615     12665     12666
     12616     12615     12665     12667     12616     12615     12665     12668
     12617     12615     12665     12666     12617     12615     12665     12667
     12617     12615     12665     12668     12618     12621     12624     12625
     12618     12621     12624     12626     12618     12621     12624     12627
     12619     12618     12621     12622     12619     12618     12621     12623
     12619     12618     12621     12624     12620     12618     12621     12622
     12620     12618     12621     12623     12620     12618     12621     12624
     12621     12624     12627     12628     12621     12624     12627     12629
     12621     12624     12627     12630     12622     12621     12624     12625
     12622     12621     12624     12626     12622     12621     12624     12627
     12623     12621     12624     12625     12623     12621     12624     12626
     12623     12621     12624     12627     12624     12627     12630     12631
     12624     12627     12630     12632     12624     12627     12630     12633
     12625     12624     12627     12628     12625     12624     12627     12629
     12625     12624     12627     12630     12626     12624     12627     12628
     12626     12624     12627     12629     12626     12624     12627     12630
     12627     12630     12633     12634     12627     12630     12633     12635
     12627     12630     12633     12636     12628     12627     12630     12631
     12628     12627     12630     12632     12628     12627     12630     12633
     12629     12627     12630     12631     12629     12627     12630     12632
     12629     12627     12630     12633     12630     12633     12636     12637
     12630     12633     12636     12638     12631     12630     12633     12634
     12631     12630     12633     12635     12631     12630     12633     12636
     12632     12630     12633     12634     12632     12630     12633     12635
     12632     12630     12633     12636     12633     12636     12638     12639
     12633     12636     12638     12640     12634     12633     12636     12637
     12634     12633     12636     12638     12635     12633     12636     12637
     12635     12633     12636     12638     12636     12638     12640     12641
     12636     12638     12640     12642     12636     12638     12640     12643
     12637     12636     12638     12639     12637     12636     12638     12640
     12638     12640     12643     12644     12638     12640     12643     12645
     12638     12640     12643     12646     12639     12638     12640     12641
     12639     12638     12640     12642     12639     12638     12640     12643
     12640     12643     12646     12647     12640     12643     12646     12648
     12640     12643     12646     12649     12641     12640     12643     12644
     12641     12640     12643     12645     12641     12640     12643     12646
     12642     12640     12643     12644     12642     12640     12643     12645
     12642     12640     12643     12646     12643     12646     12649     12650
     12643     12646     12649     12651     12643     12646     12649     12652
     12644     12643     12646     12647     12644     12643     12646     12648
     12644     12643     12646     12649     12645     12643     12646     12647
     12645     12643     12646     12648     12645     12643     12646     12649
     12646     12649     12652     12653     12646     12649     12652     12654
     12646     12649     12652     12655     12647     12646     12649     12650
     12647     12646     12649     12651     12647     12646     12649     12652
     12648     12646     12649     12650     12648     12646     12649     12651
     12648     12646     12649     12652     12649     12652     12655     12656
     12649     12652     12655     12657     12649     12652     12655     12658
     12650     12649     12652     12653     12650     12649     12652     12654
     12650     12649     12652     12655     12651     12649     12652     12653
     12651     12649     12652     12654     12651     12649     12652     12655
     12652     12655     12658     12659     12652     12655     12658     12660
     12652     12655     12658     12661     12653     12652     12655     12656
     12653     12652     12655     12657     12653     12652     12655     12658
     12654     12652     12655     12656     12654     12652     12655     12657
     12654     12652     12655     12658     12655     12658     12661     12662
     12655     12658     12661     12663     12655     12658     12661     12664
     12656     12655     12658     12659     12656     12655     12658     12660
     12656     12655     12658     12661     12657     12655     12658     12659
     12657     12655     12658     12660     12657     12655     12658     12661
     12659     12658     12661     12662     12659     12658     12661     12663
     12659     12658     12661     12664     12660     12658     12661     12662
     12660     12658     12661     12663     12660     12658     12661     12664
     12665     12668     12671     12672     12665     12668     12671     12673
     12665     12668     12671     12674     12666     12665     12668     12669
     12666     12665     12668     12670     12666     12665     12668     12671
     12667     12665     12668     12669     12667     12665     12668     12670
     12667     12665     12668     12671     12668     12671     12674     12675
     12668     12671     12674     12676     12668     12671     12674     12677
     12669     12668     12671     12672     12669     12668     12671     12673
     12669     12668     12671     12674     12670     12668     12671     12672
     12670     12668     12671     12673     12670     12668     12671     12674
     12671     12674     12677     12678     12671     12674     12677     12679
     12671     12674     12677     12680     12672     12671     12674     12675
     12672     12671     12674     12676     12672     12671     12674     12677
     12673     12671     12674     12675     12673     12671     12674     12676
     12673     12671     12674     12677     12674     12677     12680     12681
     12674     12677     12680     12682     12674     12677     12680     12683
     12675     12674     12677     12678     12675     12674     12677     12679
     12675     12674     12677     12680     12676     12674     12677     12678
     12676     12674     12677     12679     12676     12674     12677     12680
     12677     12680     12683     12684     12677     12680     12683     12685
     12677     12680     12683     12686     12678     12677     12680     12681
     12678     12677     12680     12682     12678     12677     12680     12683
     12679     12677     12680     12681     12679     12677     12680     12682
     12679     12677     12680     12683     12680     12683     12686     12687
     12680     12683     12686     12688     12680     12683     12686     12689
     12681     12680     12683     12684     12681     12680     12683     12685
     12681     12680     12683     12686     12682     12680     12683     12684
     12682     12680     12683     12685     12682     12680     12683     12686
     12683     12686     12689     12690     12683     12686     12689     12691
     12683     12686     12689     12692     12684     12683     12686     12687
     12684     12683     12686     12688     12684     12683     12686     12689
     12685     12683     12686     12687     12685     12683     12686     12688
     12685     12683     12686     12689     12686     12689     12692     12693
     12686     12689     12692     12694     12686     12689     12692     12695
     12687     12686     12689     12690     12687     12686     12689     12691
     12687     12686     12689     12692     12688     12686     12689     12690
     12688     12686     12689     12691     12688     12686     12689     12692
     12689     12692     12695     12696     12689     12692     12695     12697
     12689     12692     12695     12698     12690     12689     12692     12693
     12690     12689     12692     12694     12690     12689     12692     12695
     12691     12689     12692     12693     12691     12689     12692     12694
     12691     12689     12692     12695     12692     12695     12698     12699
     12692     12695     12698     12700     12692     12695     12698     12701
     12693     12692     12695     12696     12693     12692     12695     12697
     12693     12692     12695     12698     12694     12692     12695     12696
     12694     12692     12695     12697     12694     12692     12695     12698
     12695     12698     12701     12702     12695     12698     12701     12703
     12695     12698     12701     12704     12696     12695     12698     12699
     12696     12695     12698     12700     12696     12695     12698     12701
     12697     12695     12698     12699     12697     12695     12698     12700
     12697     12695     12698     12701     12698     12701     12704     12705
     12698     12701     12704     12706     12698     12701     12704     12707
     12699     12698     12701     12702     12699     12698     12701     12703
     12699     12698     12701     12704     12700     12698     12701     12702
     12700     12698     12701     12703     12700     12698     12701     12704
     12702     12701     12704     12705     12702     12701     12704     12706
     12702     12701     12704     12707     12703     12701     12704     12705
     12703     12701     12704     12706     12703     12701     12704     12707
     12708     12712     12715     12716     12708     12712     12715     12717
     12708     12712     12715     12722     12709     12708     12712     12713
     12709     12708     12712     12714     12709     12708     12712     12715
     12710     12708     12712     12713     12710     12708     12712     12714
     12710     12708     12712     12715     12711     12708     12712     12713
     12711     12708     12712     12714     12711     12708     12712     12715
     12712     12715     12722     12718     12713     12712     12715     12716
     12713     12712     12715     12717     12713     12712     12715     12722
     12714     12712     12715     12716     12714     12712     12715     12717
     12714     12712     12715     12722     12715     12722     12718     12719
     12715     12722     12718     12720     12715     12722     12718     12721
     12716     12715     12722     12718     12717     12715     12722     12718
     12718     12721     12723     12724     12718     12721     12723     12725
     12718     12721     12723     12726     12719     12718     12721     12723
     12720     12718     12721     12723     12721     12723     12726     12727
     12721     12723     12726     12728     12721     12723     12726     12734
     12722     12718     12721     12723     12723     12726     12728     12729
     12723     12726     12734     12735     12723     12726     12734     12736
     12723     12726     12734     12737     12724     12723     12726     12727
     12724     12723     12726     12728     12724     12723     12726     12734
     12725     12723     12726     12727     12725     12723     12726     12728
     12725     12723     12726     12734     12726     12728     12729     12730
     12726     12728     12729     12731     12726     12734     12737     12738
     12727     12726     12728     12729     12727     12726     12734     12735
     12727     12726     12734     12736     12727     12726     12734     12737
     12728     12726     12734     12735     12728     12726     12734     12736
     12728     12726     12734     12737     12728     12729     12731     12732
     12728     12729     12731     12733     12728     12729     12731     12743
     12729     12728     12726     12734     12729     12731     12743     12744
     12729     12731     12743     12745     12729     12731     12743     12746
     12730     12729     12731     12732     12730     12729     12731     12733
     12730     12729     12731     12743     12731     12743     12746     12747
     12731     12743     12746     12748     12731     12743     12746     12749
     12732     12731     12743     12744     12732     12731     12743     12745
     12732     12731     12743     12746     12733     12731     12743     12744
     12733     12731     12743     12745     12733     12731     12743     12746
     12734     12737     12738     12739     12734     12737     12738     12740
     12735     12734     12737     12738     12736     12734     12737     12738
     12737     12738     12740     12741     12737     12738     12740     12742
     12737     12738     12740     12787     12738     12740     12787     12788
     12738     12740     12787     12789     12738     12740     12787     12790
     12739     12738     12740     12741     12739     12738     12740     12742
     12739     12738     12740     12787     12740     12787     12790     12791
     12740     12787     12790     12792     12740     12787     12790     12793
     12741     12740     12787     12788     12741     12740     12787     12789
     12741     12740     12787     12790     12742     12740     12787     12788
     12742     12740     12787     12789     12742     12740     12787     12790
     12743     12746     12749     12750     12743     12746     12749     12751
     12743     12746     12749     12752     12744     12743     12746     12747
     12744     12743     12746     12748     12744     12743     12746     12749
     12745     12743     12746     12747     12745     12743     12746     12748
     12745     12743     12746     12749     12746     12749     12752     12753
     12746     12749     12752     12754     12746     12749     12752     12755
     12747     12746     12749     12750     12747     12746     12749     12751
     12747     12746     12749     12752     12748     12746     12749     12750
     12748     12746     12749     12751     12748     12746     12749     12752
     12749     12752     12755     12756     12749     12752     12755     12757
     12749     12752     12755     12758     12750     12749     12752     12753
     12750     12749     12752     12754     12750     12749     12752     12755
     12751     12749     12752     12753     12751     12749     12752     12754
     12751     12749     12752     12755     12752     12755     12758     12759
     12752     12755     12758     12760     12752     12755     12758     12761
     12753     12752     12755     12756     12753     12752     12755     12757
     12753     12752     12755     12758     12754     12752     12755     12756
     12754     12752     12755     12757     12754     12752     12755     12758
     12755     12758     12761     12762     12755     12758     12761     12763
     12755     12758     12761     12766     12756     12755     12758     12759
     12756     12755     12758     12760     12756     12755     12758     12761
     12757     12755     12758     12759     12757     12755     12758     12760
     12757     12755     12758     12761     12758     12761     12763     12764
     12758     12761     12763     12765     12758     12761     12763     12766
     12758     12761     12766     12763     12758     12761     12766     12767
     12758     12761     12766     12768     12759     12758     12761     12762
     12759     12758     12761     12763     12759     12758     12761     12766
     12760     12758     12761     12762     12760     12758     12761     12763
     12760     12758     12761     12766     12761     12763     12766     12767
     12761     12763     12766     12768     12761     12766     12763     12764
     12761     12766     12763     12765     12761     12766     12768     12769
     12761     12766     12768     12770     12761     12766     12768     12771
     12762     12761     12763     12764     12762     12761     12763     12765
     12762     12761     12763     12766     12762     12761     12766     12763
     12762     12761     12766     12767     12762     12761     12766     12768
     12763     12761     12766     12767     12763     12761     12766     12768
     12763     12766     12768     12769     12763     12766     12768     12770
     12763     12766     12768     12771     12764     12763     12761     12766
     12764     12763     12766     12767     12764     12763     12766     12768
     12765     12763     12761     12766     12765     12763     12766     12767
     12765     12763     12766     12768     12766     12768     12771     12772
     12766     12768     12771     12773     12766     12768     12771     12774
     12767     12766     12768     12769     12767     12766     12768     12770
     12767     12766     12768     12771     12768     12771     12774     12775
     12768     12771     12774     12776     12768     12771     12774     12777
     12769     12768     12771     12772     12769     12768     12771     12773
     12769     12768     12771     12774     12770     12768     12771     12772
     12770     12768     12771     12773     12770     12768     12771     12774
     12771     12774     12777     12778     12771     12774     12777     12779
     12771     12774     12777     12780     12772     12771     12774     12775
     12772     12771     12774     12776     12772     12771     12774     12777
     12773     12771     12774     12775     12773     12771     12774     12776
     12773     12771     12774     12777     12774     12777     12780     12781
     12774     12777     12780     12782     12774     12777     12780     12783
     12775     12774     12777     12778     12775     12774     12777     12779
     12775     12774     12777     12780     12776     12774     12777     12778
     12776     12774     12777     12779     12776     12774     12777     12780
     12777     12780     12783     12784     12777     12780     12783     12785
     12777     12780     12783     12786     12778     12777     12780     12781
     12778     12777     12780     12782     12778     12777     12780     12783
     12779     12777     12780     12781     12779     12777     12780     12782
     12779     12777     12780     12783     12781     12780     12783     12784
     12781     12780     12783     12785     12781     12780     12783     12786
     12782     12780     12783     12784     12782     12780     12783     12785
     12782     12780     12783     12786     12787     12790     12793     12794
     12787     12790     12793     12795     12787     12790     12793     12796
     12788     12787     12790     12791     12788     12787     12790     12792
     12788     12787     12790     12793     12789     12787     12790     12791
     12789     12787     12790     12792     12789     12787     12790     12793
     12790     12793     12796     12797     12790     12793     12796     12798
     12790     12793     12796     12799     12791     12790     12793     12794
     12791     12790     12793     12795     12791     12790     12793     12796
     12792     12790     12793     12794     12792     12790     12793     12795
     12792     12790     12793     12796     12793     12796     12799     12800
     12793     12796     12799     12801     12793     12796     12799     12802
     12794     12793     12796     12797     12794     12793     12796     12798
     12794     12793     12796     12799     12795     12793     12796     12797
     12795     12793     12796     12798     12795     12793     12796     12799
     12796     12799     12802     12803     12796     12799     12802     12804
     12796     12799     12802     12805     12797     12796     12799     12800
     12797     12796     12799     12801     12797     12796     12799     12802
     12798     12796     12799     12800     12798     12796     12799     12801
     12798     12796     12799     12802     12799     12802     12805     12806
     12799     12802     12805     12807     12799     12802     12805     12808
     12800     12799     12802     12803     12800     12799     12802     12804
     12800     12799     12802     12805     12801     12799     12802     12803
     12801     12799     12802     12804     12801     12799     12802     12805
     12802     12805     12808     12809     12802     12805     12808     12810
     12802     12805     12808     12811     12803     12802     12805     12806
     12803     12802     12805     12807     12803     12802     12805     12808
     12804     12802     12805     12806     12804     12802     12805     12807
     12804     12802     12805     12808     12805     12808     12811     12812
     12805     12808     12811     12813     12805     12808     12811     12814
     12806     12805     12808     12809     12806     12805     12808     12810
     12806     12805     12808     12811     12807     12805     12808     12809
     12807     12805     12808     12810     12807     12805     12808     12811
     12808     12811     12814     12815     12808     12811     12814     12816
     12808     12811     12814     12817     12809     12808     12811     12812
     12809     12808     12811     12813     12809     12808     12811     12814
     12810     12808     12811     12812     12810     12808     12811     12813
     12810     12808     12811     12814     12811     12814     12817     12818
     12811     12814     12817     12819     12811     12814     12817     12820
     12812     12811     12814     12815     12812     12811     12814     12816
     12812     12811     12814     12817     12813     12811     12814     12815
     12813     12811     12814     12816     12813     12811     12814     12817
     12814     12817     12820     12821     12814     12817     12820     12822
     12814     12817     12820     12823     12815     12814     12817     12818
     12815     12814     12817     12819     12815     12814     12817     12820
     12816     12814     12817     12818     12816     12814     12817     12819
     12816     12814     12817     12820     12817     12820     12823     12824
     12817     12820     12823     12825     12817     12820     12823     12826
     12818     12817     12820     12821     12818     12817     12820     12822
     12818     12817     12820     12823     12819     12817     12820     12821
     12819     12817     12820     12822     12819     12817     12820     12823
     12820     12823     12826     12827     12820     12823     12826     12828
     12820     12823     12826     12829     12821     12820     12823     12824
     12821     12820     12823     12825     12821     12820     12823     12826
     12822     12820     12823     12824     12822     12820     12823     12825
     12822     12820     12823     12826     12824     12823     12826     12827
     12824     12823     12826     12828     12824     12823     12826     12829
     12825     12823     12826     12827     12825     12823     12826     12828
     12825     12823     12826     12829     12830     12834     12837     12838
     12830     12834     12837     12839     12830     12834     12837     12844
     12831     12830     12834     12835     12831     12830     12834     12836
     12831     12830     12834     12837     12832     12830     12834     12835
     12832     12830     12834     12836     12832     12830     12834     12837
     12833     12830     12834     12835     12833     12830     12834     12836
     12833     12830     12834     12837     12834     12837     12844     12840
     12835     12834     12837     12838     12835     12834     12837     12839
     12835     12834     12837     12844     12836     12834     12837     12838
     12836     12834     12837     12839     12836     12834     12837     12844
     12837     12844     12840     12841     12837     12844     12840     12842
     12837     12844     12840     12843     12838     12837     12844     12840
     12839     12837     12844     12840     12840     12843     12845     12846
     12840     12843     12845     12847     12840     12843     12845     12848
     12841     12840     12843     12845     12842     12840     12843     12845
     12843     12845     12848     12849     12843     12845     12848     12850
     12843     12845     12848     12856     12844     12840     12843     12845
     12845     12848     12850     12851     12845     12848     12856     12857
     12845     12848     12856     12858     12845     12848     12856     12859
     12846     12845     12848     12849     12846     12845     12848     12850
     12846     12845     12848     12856     12847     12845     12848     12849
     12847     12845     12848     12850     12847     12845     12848     12856
     12848     12850     12851     12852     12848     12850     12851     12853
     12848     12856     12859     12860     12849     12848     12850     12851
     12849     12848     12856     12857     12849     12848     12856     12858
     12849     12848     12856     12859     12850     12848     12856     12857
     12850     12848     12856     12858     12850     12848     12856     12859
     12850     12851     12853     12854     12850     12851     12853     12855
     12850     12851     12853     12865     12851     12850     12848     12856
     12851     12853     12865     12866     12851     12853     12865     12867
     12851     12853     12865     12868     12852     12851     12853     12854
     12852     12851     12853     12855     12852     12851     12853     12865
     12853     12865     12868     12869     12853     12865     12868     12870
     12853     12865     12868     12871     12854     12853     12865     12866
     12854     12853     12865     12867     12854     12853     12865     12868
     12855     12853     12865     12866     12855     12853     12865     12867
     12855     12853     12865     12868     12856     12859     12860     12861
     12856     12859     12860     12862     12857     12856     12859     12860
     12858     12856     12859     12860     12859     12860     12862     12863
     12859     12860     12862     12864     12859     12860     12862     12909
     12860     12862     12909     12910     12860     12862     12909     12911
     12860     12862     12909     12912     12861     12860     12862     12863
     12861     12860     12862     12864     12861     12860     12862     12909
     12862     12909     12912     12913     12862     12909     12912     12914
     12862     12909     12912     12915     12863     12862     12909     12910
     12863     12862     12909     12911     12863     12862     12909     12912
     12864     12862     12909     12910     12864     12862     12909     12911
     12864     12862     12909     12912     12865     12868     12871     12872
     12865     12868     12871     12873     12865     12868     12871     12874
     12866     12865     12868     12869     12866     12865     12868     12870
     12866     12865     12868     12871     12867     12865     12868     12869
     12867     12865     12868     12870     12867     12865     12868     12871
     12868     12871     12874     12875     12868     12871     12874     12876
     12868     12871     12874     12877     12869     12868     12871     12872
     12869     12868     12871     12873     12869     12868     12871     12874
     12870     12868     12871     12872     12870     12868     12871     12873
     12870     12868     12871     12874     12871     12874     12877     12878
     12871     12874     12877     12879     12871     12874     12877     12880
     12872     12871     12874     12875     12872     12871     12874     12876
     12872     12871     12874     12877     12873     12871     12874     12875
     12873     12871     12874     12876     12873     12871     12874     12877
     12874     12877     12880     12881     12874     12877     12880     12882
     12874     12877     12880     12883     12875     12874     12877     12878
     12875     12874     12877     12879     12875     12874     12877     12880
     12876     12874     12877     12878     12876     12874     12877     12879
     12876     12874     12877     12880     12877     12880     12883     12884
     12877     12880     12883     12885     12877     12880     12883     12888
     12878     12877     12880     12881     12878     12877     12880     12882
     12878     12877     12880     12883     12879     12877     12880     12881
     12879     12877     12880     12882     12879     12877     12880     12883
     12880     12883     12885     12886     12880     12883     12885     12887
     12880     12883     12885     12888     12880     12883     12888     12885
     12880     12883     12888     12889     12880     12883     12888     12890
     12881     12880     12883     12884     12881     12880     12883     12885
     12881     12880     12883     12888     12882     12880     12883     12884
     12882     12880     12883     12885     12882     12880     12883     12888
     12883     12885     12888     12889     12883     12885     12888     12890
     12883     12888     12885     12886     12883     12888     12885     12887
     12883     12888     12890     12891     12883     12888     12890     12892
     12883     12888     12890     12893     12884     12883     12885     12886
     12884     12883     12885     12887     12884     12883     12885     12888
     12884     12883     12888     12885     12884     12883     12888     12889
     12884     12883     12888     12890     12885     12883     12888     12889
     12885     12883     12888     12890     12885     12888     12890     12891
     12885     12888     12890     12892     12885     12888     12890     12893
     12886     12885     12883     12888     12886     12885     12888     12889
     12886     12885     12888     12890     12887     12885     12883     12888
     12887     12885     12888     12889     12887     12885     12888     12890
     12888     12890     12893     12894     12888     12890     12893     12895
     12888     12890     12893     12896     12889     12888     12890     12891
     12889     12888     12890     12892     12889     12888     12890     12893
     12890     12893     12896     12897     12890     12893     12896     12898
     12890     12893     12896     12899     12891     12890     12893     12894
     12891     12890     12893     12895     12891     12890     12893     12896
     12892     12890     12893     12894     12892     12890     12893     12895
     12892     12890     12893     12896     12893     12896     12899     12900
     12893     12896     12899     12901     12893     12896     12899     12902
     12894     12893     12896     12897     12894     12893     12896     12898
     12894     12893     12896     12899     12895     12893     12896     12897
     12895     12893     12896     12898     12895     12893     12896     12899
     12896     12899     12902     12903     12896     12899     12902     12904
     12896     12899     12902     12905     12897     12896     12899     12900
     12897     12896     12899     12901     12897     12896     12899     12902
     12898     12896     12899     12900     12898     12896     12899     12901
     12898     12896     12899     12902     12899     12902     12905     12906
     12899     12902     12905     12907     12899     12902     12905     12908
     12900     12899     12902     12903     12900     12899     12902     12904
     12900     12899     12902     12905     12901     12899     12902     12903
     12901     12899     12902     12904     12901     12899     12902     12905
     12903     12902     12905     12906     12903     12902     12905     12907
     12903     12902     12905     12908     12904     12902     12905     12906
     12904     12902     12905     12907     12904     12902     12905     12908
     12909     12912     12915     12916     12909     12912     12915     12917
     12909     12912     12915     12918     12910     12909     12912     12913
     12910     12909     12912     12914     12910     12909     12912     12915
     12911     12909     12912     12913     12911     12909     12912     12914
     12911     12909     12912     12915     12912     12915     12918     12919
     12912     12915     12918     12920     12912     12915     12918     12921
     12913     12912     12915     12916     12913     12912     12915     12917
     12913     12912     12915     12918     12914     12912     12915     12916
     12914     12912     12915     12917     12914     12912     12915     12918
     12915     12918     12921     12922     12915     12918     12921     12923
     12915     12918     12921     12924     12916     12915     12918     12919
     12916     12915     12918     12920     12916     12915     12918     12921
     12917     12915     12918     12919     12917     12915     12918     12920
     12917     12915     12918     12921     12918     12921     12924     12925
     12918     12921     12924     12926     12918     12921     12924     12927
     12919     12918     12921     12922     12919     12918     12921     12923
     12919     12918     12921     12924     12920     12918     12921     12922
     12920     12918     12921     12923     12920     12918     12921     12924
     12921     12924     12927     12928     12921     12924     12927     12929
     12921     12924     12927     12930     12922     12921     12924     12925
     12922     12921     12924     12926     12922     12921     12924     12927
     12923     12921     12924     12925     12923     12921     12924     12926
     12923     12921     12924     12927     12924     12927     12930     12931
     12924     12927     12930     12932     12924     12927     12930     12933
     12925     12924     12927     12928     12925     12924     12927     12929
     12925     12924     12927     12930     12926     12924     12927     12928
     12926     12924     12927     12929     12926     12924     12927     12930
     12927     12930     12933     12934     12927     12930     12933     12935
     12927     12930     12933     12936     12928     12927     12930     12931
     12928     12927     12930     12932     12928     12927     12930     12933
     12929     12927     12930     12931     12929     12927     12930     12932
     12929     12927     12930     12933     12930     12933     12936     12937
     12930     12933     12936     12938     12930     12933     12936     12939
     12931     12930     12933     12934     12931     12930     12933     12935
     12931     12930     12933     12936     12932     12930     12933     12934
     12932     12930     12933     12935     12932     12930     12933     12936
     12933     12936     12939     12940     12933     12936     12939     12941
     12933     12936     12939     12942     12934     12933     12936     12937
     12934     12933     12936     12938     12934     12933     12936     12939
     12935     12933     12936     12937     12935     12933     12936     12938
     12935     12933     12936     12939     12936     12939     12942     12943
     12936     12939     12942     12944     12936     12939     12942     12945
     12937     12936     12939     12940     12937     12936     12939     12941
     12937     12936     12939     12942     12938     12936     12939     12940
     12938     12936     12939     12941     12938     12936     12939     12942
     12939     12942     12945     12946     12939     12942     12945     12947
     12939     12942     12945     12948     12940     12939     12942     12943
     12940     12939     12942     12944     12940     12939     12942     12945
     12941     12939     12942     12943     12941     12939     12942     12944
     12941     12939     12942     12945     12942     12945     12948     12949
     12942     12945     12948     12950     12942     12945     12948     12951
     12943     12942     12945     12946     12943     12942     12945     12947
     12943     12942     12945     12948     12944     12942     12945     12946
     12944     12942     12945     12947     12944     12942     12945     12948
     12946     12945     12948     12949     12946     12945     12948     12950
     12946     12945     12948     12951     12947     12945     12948     12949
     12947     12945     12948     12950     12947     12945     12948     12951
     12952     12956     12959     12960     12952     12956     12959     12961
     12952     12956     12959     12966     12953     12952     12956     12957
     12953     12952     12956     12958     12953     12952     12956     12959
     12954     12952     12956     12957     12954     12952     12956     12958
     12954     12952     12956     12959     12955     12952     12956     12957
     12955     12952     12956     12958     12955     12952     12956     12959
     12956     12959     12966     12962     12957     12956     12959     12960
     12957     12956     12959     12961     12957     12956     12959     12966
     12958     12956     12959     12960     12958     12956     12959     12961
     12958     12956     12959     12966     12959     12966     12962     12963
     12959     12966     12962     12964     12959     12966     12962     12965
     12960     12959     12966     12962     12961     12959     12966     12962
     12962     12965     12967     12968     12962     12965     12967     12969
     12962     12965     12967     12970     12963     12962     12965     12967
     12964     12962     12965     12967     12965     12967     12970     12971
     12965     12967     12970     12972     12965     12967     12970     12978
     12966     12962     12965     12967     12967     12970     12972     12973
     12967     12970     12978     12979     12967     12970     12978     12980
     12967     12970     12978     12981     12968     12967     12970     12971
     12968     12967     12970     12972     12968     12967     12970     12978
     12969     12967     12970     12971     12969     12967     12970     12972
     12969     12967     12970     12978     12970     12972     12973     12974
     12970     12972     12973     12975     12970     12978     12981     12982
     12971     12970     12972     12973     12971     12970     12978     12979
     12971     12970     12978     12980     12971     12970     12978     12981
     12972     12970     12978     12979     12972     12970     12978     12980
     12972     12970     12978     12981     12972     12973     12975     12976
     12972     12973     12975     12977     12972     12973     12975     12987
     12973     12972     12970     12978     12973     12975     12987     12988
     12973     12975     12987     12989     12973     12975     12987     12990
     12974     12973     12975     12976     12974     12973     12975     12977
     12974     12973     12975     12987     12975     12987     12990     12991
     12975     12987     12990     12992     12975     12987     12990     12993
     12976     12975     12987     12988     12976     12975     12987     12989
     12976     12975     12987     12990     12977     12975     12987     12988
     12977     12975     12987     12989     12977     12975     12987     12990
     12978     12981     12982     12983     12978     12981     12982     12984
     12979     12978     12981     12982     12980     12978     12981     12982
     12981     12982     12984     12985     12981     12982     12984     12986
     12981     12982     12984     13031     12982     12984     13031     13032
     12982     12984     13031     13033     12982     12984     13031     13034
     12983     12982     12984     12985     12983     12982     12984     12986
     12983     12982     12984     13031     12984     13031     13034     13035
     12984     13031     13034     13036     12984     13031     13034     13037
     12985     12984     13031     13032     12985     12984     13031     13033
     12985     12984     13031     13034     12986     12984     13031     13032
     12986     12984     13031     13033     12986     12984     13031     13034
     12987     12990     12993     12994     12987     12990     12993     12995
     12987     12990     12993     12996     12988     12987     12990     12991
     12988     12987     12990     12992     12988     12987     12990     12993
     12989     12987     12990     12991     12989     12987     12990     12992
     12989     12987     12990     12993     12990     12993     12996     12997
     12990     12993     12996     12998     12990     12993     12996     12999
     12991     12990     12993     12994     12991     12990     12993     12995
     12991     12990     12993     12996     12992     12990     12993     12994
     12992     12990     12993     12995     12992     12990     12993     12996
     12993     12996     12999     13000     12993     12996     12999     13001
     12993     12996     12999     13002     12994     12993     12996     12997
     12994     12993     12996     12998     12994     12993     12996     12999
     12995     12993     12996     12997     12995     12993     12996     12998
     12995     12993     12996     12999     12996     12999     13002     13003
     12996     12999     13002     13004     12996     12999     13002     13005
     12997     12996     12999     13000     12997     12996     12999     13001
     12997     12996     12999     13002     12998     12996     12999     13000
     12998     12996     12999     13001     12998     12996     12999     13002
     12999     13002     13005     13006     12999     13002     13005     13007
     12999     13002     13005     13010     13000     12999     13002     13003
     13000     12999     13002     13004     13000     12999     13002     13005
     13001     12999     13002     13003     13001     12999     13002     13004
     13001     12999     13002     13005     13002     13005     13007     13008
     13002     13005     13007     13009     13002     13005     13007     13010
     13002     13005     13010     13007     13002     13005     13010     13011
     13002     13005     13010     13012     13003     13002     13005     13006
     13003     13002     13005     13007     13003     13002     13005     13010
     13004     13002     13005     13006     13004     13002     13005     13007
     13004     13002     13005     13010     13005     13007     13010     13011
     13005     13007     13010     13012     13005     13010     13007     13008
     13005     13010     13007     13009     13005     13010     13012     13013
     13005     13010     13012     13014     13005     13010     13012     13015
     13006     13005     13007     13008     13006     13005     13007     13009
     13006     13005     13007     13010     13006     13005     13010     13007
     13006     13005     13010     13011     13006     13005     13010     13012
     13007     13005     13010     13011     13007     13005     13010     13012
     13007     13010     13012     13013     13007     13010     13012     13014
     13007     13010     13012     13015     13008     13007     13005     13010
     13008     13007     13010     13011     13008     13007     13010     13012
     13009     13007     13005     13010     13009     13007     13010     13011
     13009     13007     13010     13012     13010     13012     13015     13016
     13010     13012     13015     13017     13010     13012     13015     13018
     13011     13010     13012     13013     13011     13010     13012     13014
     13011     13010     13012     13015     13012     13015     13018     13019
     13012     13015     13018     13020     13012     13015     13018     13021
     13013     13012     13015     13016     13013     13012     13015     13017
     13013     13012     13015     13018     13014     13012     13015     13016
     13014     13012     13015     13017     13014     13012     13015     13018
     13015     13018     13021     13022     13015     13018     13021     13023
     13015     13018     13021     13024     13016     13015     13018     13019
     13016     13015     13018     13020     13016     13015     13018     13021
     13017     13015     13018     13019     13017     13015     13018     13020
     13017     13015     13018     13021     13018     13021     13024     13025
     13018     13021     13024     13026     13018     13021     13024     13027
     13019     13018     13021     13022     13019     13018     13021     13023
     13019     13018     13021     13024     13020     13018     13021     13022
     13020     13018     13021     13023     13020     13018     13021     13024
     13021     13024     13027     13028     13021     13024     13027     13029
     13021     13024     13027     13030     13022     13021     13024     13025
     13022     13021     13024     13026     13022     13021     13024     13027
     13023     13021     13024     13025     13023     13021     13024     13026
     13023     13021     13024     13027     13025     13024     13027     13028
     13025     13024     13027     13029     13025     13024     13027     13030
     13026     13024     13027     13028     13026     13024     13027     13029
     13026     13024     13027     13030     13031     13034     13037     13038
     13031     13034     13037     13039     13031     13034     13037     13040
     13032     13031     13034     13035     13032     13031     13034     13036
     13032     13031     13034     13037     13033     13031     13034     13035
     13033     13031     13034     13036     13033     13031     13034     13037
     13034     13037     13040     13041     13034     13037     13040     13042
     13034     13037     13040     13043     13035     13034     13037     13038
     13035     13034     13037     13039     13035     13034     13037     13040
     13036     13034     13037     13038     13036     13034     13037     13039
     13036     13034     13037     13040     13037     13040     13043     13044
     13037     13040     13043     13045     13037     13040     13043     13046
     13038     13037     13040     13041     13038     13037     13040     13042
     13038     13037     13040     13043     13039     13037     13040     13041
     13039     13037     13040     13042     13039     13037     13040     13043
     13040     13043     13046     13047     13040     13043     13046     13048
     13040     13043     13046     13049     13041     13040     13043     13044
     13041     13040     13043     13045     13041     13040     13043     13046
     13042     13040     13043     13044     13042     13040     13043     13045
     13042     13040     13043     13046     13043     13046     13049     13050
     13043     13046     13049     13051     13043     13046     13049     13052
     13044     13043     13046     13047     13044     13043     13046     13048
     13044     13043     13046     13049     13045     13043     13046     13047
     13045     13043     13046     13048     13045     13043     13046     13049
     13046     13049     13052     13053     13046     13049     13052     13054
     13046     13049     13052     13055     13047     13046     13049     13050
     13047     13046     13049     13051     13047     13046     13049     13052
     13048     13046     13049     13050     13048     13046     13049     13051
     13048     13046     13049     13052     13049     13052     13055     13056
     13049     13052     13055     13057     13049     13052     13055     13058
     13050     13049     13052     13053     13050     13049     13052     13054
     13050     13049     13052     13055     13051     13049     13052     13053
     13051     13049     13052     13054     13051     13049     13052     13055
     13052     13055     13058     13059     13052     13055     13058     13060
     13052     13055     13058     13061     13053     13052     13055     13056
     13053     13052     13055     13057     13053     13052     13055     13058
     13054     13052     13055     13056     13054     13052     13055     13057
     13054     13052     13055     13058     13055     13058     13061     13062
     13055     13058     13061     13063     13055     13058     13061     13064
     13056     13055     13058     13059     13056     13055     13058     13060
     13056     13055     13058     13061     13057     13055     13058     13059
     13057     13055     13058     13060     13057     13055     13058     13061
     13058     13061     13064     13065     13058     13061     13064     13066
     13058     13061     13064     13067     13059     13058     13061     13062
     13059     13058     13061     13063     13059     13058     13061     13064
     13060     13058     13061     13062     13060     13058     13061     13063
     13060     13058     13061     13064     13061     13064     13067     13068
     13061     13064     13067     13069     13061     13064     13067     13070
     13062     13061     13064     13065     13062     13061     13064     13066
     13062     13061     13064     13067     13063     13061     13064     13065
     13063     13061     13064     13066     13063     13061     13064     13067
     13065     13064     13067     13068     13065     13064     13067     13069
     13065     13064     13067     13070     13066     13064     13067     13068
     13066     13064     13067     13069     13066     13064     13067     13070
     13071     13075     13078     13079     13071     13075     13078     13080
     13071     13075     13078     13085     13072     13071     13075     13076
     13072     13071     13075     13077     13072     13071     13075     13078
     13073     13071     13075     13076     13073     13071     13075     13077
     13073     13071     13075     13078     13074     13071     13075     13076
     13074     13071     13075     13077     13074     13071     13075     13078
     13075     13078     13085     13081     13076     13075     13078     13079
     13076     13075     13078     13080     13076     13075     13078     13085
     13077     13075     13078     13079     13077     13075     13078     13080
     13077     13075     13078     13085     13078     13085     13081     13082
     13078     13085     13081     13083     13078     13085     13081     13084
     13079     13078     13085     13081     13080     13078     13085     13081
     13081     13084     13086     13087     13081     13084     13086     13088
     13081     13084     13086     13089     13082     13081     13084     13086
     13083     13081     13084     13086     13084     13086     13089     13090
     13084     13086     13089     13091     13084     13086     13089     13097
     13085     13081     13084     13086     13086     13089     13091     13092
     13086     13089     13097     13098     13086     13089     13097     13099
     13086     13089     13097     13100     13087     13086     13089     13090
     13087     13086     13089     13091     13087     13086     13089     13097
     13088     13086     13089     13090     13088     13086     13089     13091
     13088     13086     13089     13097     13089     13091     13092     13093
     13089     13091     13092     13094     13089     13097     13100     13101
     13090     13089     13091     13092     13090     13089     13097     13098
     13090     13089     13097     13099     13090     13089     13097     13100
     13091     13089     13097     13098     13091     13089     13097     13099
     13091     13089     13097     13100     13091     13092     13094     13095
     13091     13092     13094     13096     13091     13092     13094     13106
     13092     13091     13089     13097     13092     13094     13106     13107
     13092     13094     13106     13108     13092     13094     13106     13109
     13093     13092     13094     13095     13093     13092     13094     13096
     13093     13092     13094     13106     13094     13106     13109     13110
     13094     13106     13109     13111     13094     13106     13109     13112
     13095     13094     13106     13107     13095     13094     13106     13108
     13095     13094     13106     13109     13096     13094     13106     13107
     13096     13094     13106     13108     13096     13094     13106     13109
     13097     13100     13101     13102     13097     13100     13101     13103
     13098     13097     13100     13101     13099     13097     13100     13101
     13100     13101     13103     13104     13100     13101     13103     13105
     13100     13101     13103     13150     13101     13103     13150     13151
     13101     13103     13150     13152     13101     13103     13150     13153
     13102     13101     13103     13104     13102     13101     13103     13105
     13102     13101     13103     13150     13103     13150     13153     13154
     13103     13150     13153     13155     13103     13150     13153     13156
     13104     13103     13150     13151     13104     13103     13150     13152
     13104     13103     13150     13153     13105     13103     13150     13151
     13105     13103     13150     13152     13105     13103     13150     13153
     13106     13109     13112     13113     13106     13109     13112     13114
     13106     13109     13112     13115     13107     13106     13109     13110
     13107     13106     13109     13111     13107     13106     13109     13112
     13108     13106     13109     13110     13108     13106     13109     13111
     13108     13106     13109     13112     13109     13112     13115     13116
     13109     13112     13115     13117     13109     13112     13115     13118
     13110     13109     13112     13113     13110     13109     13112     13114
     13110     13109     13112     13115     13111     13109     13112     13113
     13111     13109     13112     13114     13111     13109     13112     13115
     13112     13115     13118     13119     13112     13115     13118     13120
     13112     13115     13118     13121     13113     13112     13115     13116
     13113     13112     13115     13117     13113     13112     13115     13118
     13114     13112     13115     13116     13114     13112     13115     13117
     13114     13112     13115     13118     13115     13118     13121     13122
     13115     13118     13121     13123     13115     13118     13121     13124
     13116     13115     13118     13119     13116     13115     13118     13120
     13116     13115     13118     13121     13117     13115     13118     13119
     13117     13115     13118     13120     13117     13115     13118     13121
     13118     13121     13124     13125     13118     13121     13124     13126
     13118     13121     13124     13129     13119     13118     13121     13122
     13119     13118     13121     13123     13119     13118     13121     13124
     13120     13118     13121     13122     13120     13118     13121     13123
     13120     13118     13121     13124     13121     13124     13126     13127
     13121     13124     13126     13128     13121     13124     13126     13129
     13121     13124     13129     13126     13121     13124     13129     13130
     13121     13124     13129     13131     13122     13121     13124     13125
     13122     13121     13124     13126     13122     13121     13124     13129
     13123     13121     13124     13125     13123     13121     13124     13126
     13123     13121     13124     13129     13124     13126     13129     13130
     13124     13126     13129     13131     13124     13129     13126     13127
     13124     13129     13126     13128     13124     13129     13131     13132
     13124     13129     13131     13133     13124     13129     13131     13134
     13125     13124     13126     13127     13125     13124     13126     13128
     13125     13124     13126     13129     13125     13124     13129     13126
     13125     13124     13129     13130     13125     13124     13129     13131
     13126     13124     13129     13130     13126     13124     13129     13131
     13126     13129     13131     13132     13126     13129     13131     13133
     13126     13129     13131     13134     13127     13126     13124     13129
     13127     13126     13129     13130     13127     13126     13129     13131
     13128     13126     13124     13129     13128     13126     13129     13130
     13128     13126     13129     13131     13129     13131     13134     13135
     13129     13131     13134     13136     13129     13131     13134     13137
     13130     13129     13131     13132     13130     13129     13131     13133
     13130     13129     13131     13134     13131     13134     13137     13138
     13131     13134     13137     13139     13131     13134     13137     13140
     13132     13131     13134     13135     13132     13131     13134     13136
     13132     13131     13134     13137     13133     13131     13134     13135
     13133     13131     13134     13136     13133     13131     13134     13137
     13134     13137     13140     13141     13134     13137     13140     13142
     13134     13137     13140     13143     13135     13134     13137     13138
     13135     13134     13137     13139     13135     13134     13137     13140
     13136     13134     13137     13138     13136     13134     13137     13139
     13136     13134     13137     13140     13137     13140     13143     13144
     13137     13140     13143     13145     13137     13140     13143     13146
     13138     13137     13140     13141     13138     13137     13140     13142
     13138     13137     13140     13143     13139     13137     13140     13141
     13139     13137     13140     13142     13139     13137     13140     13143
     13140     13143     13146     13147     13140     13143     13146     13148
     13140     13143     13146     13149     13141     13140     13143     13144
     13141     13140     13143     13145     13141     13140     13143     13146
     13142     13140     13143     13144     13142     13140     13143     13145
     13142     13140     13143     13146     13144     13143     13146     13147
     13144     13143     13146     13148     13144     13143     13146     13149
     13145     13143     13146     13147     13145     13143     13146     13148
     13145     13143     13146     13149     13150     13153     13156     13157
     13150     13153     13156     13158     13150     13153     13156     13159
     13151     13150     13153     13154     13151     13150     13153     13155
     13151     13150     13153     13156     13152     13150     13153     13154
     13152     13150     13153     13155     13152     13150     13153     13156
     13153     13156     13159     13160     13153     13156     13159     13161
     13153     13156     13159     13162     13154     13153     13156     13157
     13154     13153     13156     13158     13154     13153     13156     13159
     13155     13153     13156     13157     13155     13153     13156     13158
     13155     13153     13156     13159     13156     13159     13162     13163
     13156     13159     13162     13164     13156     13159     13162     13165
     13157     13156     13159     13160     13157     13156     13159     13161
     13157     13156     13159     13162     13158     13156     13159     13160
     13158     13156     13159     13161     13158     13156     13159     13162
     13159     13162     13165     13166     13159     13162     13165     13167
     13159     13162     13165     13168     13160     13159     13162     13163
     13160     13159     13162     13164     13160     13159     13162     13165
     13161     13159     13162     13163     13161     13159     13162     13164
     13161     13159     13162     13165     13162     13165     13168     13169
     13162     13165     13168     13170     13162     13165     13168     13171
     13163     13162     13165     13166     13163     13162     13165     13167
     13163     13162     13165     13168     13164     13162     13165     13166
     13164     13162     13165     13167     13164     13162     13165     13168
     13165     13168     13171     13172     13165     13168     13171     13173
     13165     13168     13171     13174     13166     13165     13168     13169
     13166     13165     13168     13170     13166     13165     13168     13171
     13167     13165     13168     13169     13167     13165     13168     13170
     13167     13165     13168     13171     13168     13171     13174     13175
     13168     13171     13174     13176     13168     13171     13174     13177
     13169     13168     13171     13172     13169     13168     13171     13173
     13169     13168     13171     13174     13170     13168     13171     13172
     13170     13168     13171     13173     13170     13168     13171     13174
     13171     13174     13177     13178     13171     13174     13177     13179
     13171     13174     13177     13180     13172     13171     13174     13175
     13172     13171     13174     13176     13172     13171     13174     13177
     13173     13171     13174     13175     13173     13171     13174     13176
     13173     13171     13174     13177     13174     13177     13180     13181
     13174     13177     13180     13182     13174     13177     13180     13183
     13175     13174     13177     13178     13175     13174     13177     13179
     13175     13174     13177     13180     13176     13174     13177     13178
     13176     13174     13177     13179     13176     13174     13177     13180
     13177     13180     13183     13184     13177     13180     13183     13185
     13177     13180     13183     13186     13178     13177     13180     13181
     13178     13177     13180     13182     13178     13177     13180     13183
     13179     13177     13180     13181     13179     13177     13180     13182
     13179     13177     13180     13183     13180     13183     13186     13187
     13180     13183     13186     13188     13180     13183     13186     13189
     13181     13180     13183     13184     13181     13180     13183     13185
     13181     13180     13183     13186     13182     13180     13183     13184
     13182     13180     13183     13185     13182     13180     13183     13186
     13184     13183     13186     13187     13184     13183     13186     13188
     13184     13183     13186     13189     13185     13183     13186     13187
     13185     13183     13186     13188     13185     13183     13186     13189
     13190     13194     13197     13198     13190     13194     13197     13199
     13190     13194     13197     13204     13191     13190     13194     13195
     13191     13190     13194     13196     13191     13190     13194     13197
     13192     13190     13194     13195     13192     13190     13194     13196
     13192     13190     13194     13197     13193     13190     13194     13195
     13193     13190     13194     13196     13193     13190     13194     13197
     13194     13197     13204     13200     13195     13194     13197     13198
     13195     13194     13197     13199     13195     13194     13197     13204
     13196     13194     13197     13198     13196     13194     13197     13199
     13196     13194     13197     13204     13197     13204     13200     13201
     13197     13204     13200     13202     13197     13204     13200     13203
     13198     13197     13204     13200     13199     13197     13204     13200
     13200     13203     13205     13206     13200     13203     13205     13207
     13200     13203     13205     13208     13201     13200     13203     13205
     13202     13200     13203     13205     13203     13205     13208     13209
     13203     13205     13208     13210     13203     13205     13208     13216
     13204     13200     13203     13205     13205     13208     13210     13211
     13205     13208     13216     13217     13205     13208     13216     13218
     13205     13208     13216     13219     13206     13205     13208     13209
     13206     13205     13208     13210     13206     13205     13208     13216
     13207     13205     13208     13209     13207     13205     13208     13210
     13207     13205     13208     13216     13208     13210     13211     13212
     13208     13210     13211     13213     13208     13216     13219     13220
     13209     13208     13210     13211     13209     13208     13216     13217
     13209     13208     13216     13218     13209     13208     13216     13219
     13210     13208     13216     13217     13210     13208     13216     13218
     13210     13208     13216     13219     13210     13211     13213     13214
     13210     13211     13213     13215     13210     13211     13213     13225
     13211     13210     13208     13216     13211     13213     13225     13226
     13211     13213     13225     13227     13211     13213     13225     13228
     13212     13211     13213     13214     13212     13211     13213     13215
     13212     13211     13213     13225     13213     13225     13228     13229
     13213     13225     13228     13230     13213     13225     13228     13231
     13214     13213     13225     13226     13214     13213     13225     13227
     13214     13213     13225     13228     13215     13213     13225     13226
     13215     13213     13225     13227     13215     13213     13225     13228
     13216     13219     13220     13221     13216     13219     13220     13222
     13217     13216     13219     13220     13218     13216     13219     13220
     13219     13220     13222     13223     13219     13220     13222     13224
     13219     13220     13222     13269     13220     13222     13269     13270
     13220     13222     13269     13271     13220     13222     13269     13272
     13221     13220     13222     13223     13221     13220     13222     13224
     13221     13220     13222     13269     13222     13269     13272     13273
     13222     13269     13272     13274     13222     13269     13272     13275
     13223     13222     13269     13270     13223     13222     13269     13271
     13223     13222     13269     13272     13224     13222     13269     13270
     13224     13222     13269     13271     13224     13222     13269     13272
     13225     13228     13231     13232     13225     13228     13231     13233
     13225     13228     13231     13234     13226     13225     13228     13229
     13226     13225     13228     13230     13226     13225     13228     13231
     13227     13225     13228     13229     13227     13225     13228     13230
     13227     13225     13228     13231     13228     13231     13234     13235
     13228     13231     13234     13236     13228     13231     13234     13237
     13229     13228     13231     13232     13229     13228     13231     13233
     13229     13228     13231     13234     13230     13228     13231     13232
     13230     13228     13231     13233     13230     13228     13231     13234
     13231     13234     13237     13238     13231     13234     13237     13239
     13231     13234     13237     13240     13232     13231     13234     13235
     13232     13231     13234     13236     13232     13231     13234     13237
     13233     13231     13234     13235     13233     13231     13234     13236
     13233     13231     13234     13237     13234     13237     13240     13241
     13234     13237     13240     13242     13234     13237     13240     13243
     13235     13234     13237     13238     13235     13234     13237     13239
     13235     13234     13237     13240     13236     13234     13237     13238
     13236     13234     13237     13239     13236     13234     13237     13240
     13237     13240     13243     13244     13237     13240     13243     13245
     13237     13240     13243     13248     13238     13237     13240     13241
     13238     13237     13240     13242     13238     13237     13240     13243
     13239     13237     13240     13241     13239     13237     13240     13242
     13239     13237     13240     13243     13240     13243     13245     13246
     13240     13243     13245     13247     13240     13243     13245     13248
     13240     13243     13248     13245     13240     13243     13248     13249
     13240     13243     13248     13250     13241     13240     13243     13244
     13241     13240     13243     13245     13241     13240     13243     13248
     13242     13240     13243     13244     13242     13240     13243     13245
     13242     13240     13243     13248     13243     13245     13248     13249
     13243     13245     13248     13250     13243     13248     13245     13246
     13243     13248     13245     13247     13243     13248     13250     13251
     13243     13248     13250     13252     13243     13248     13250     13253
     13244     13243     13245     13246     13244     13243     13245     13247
     13244     13243     13245     13248     13244     13243     13248     13245
     13244     13243     13248     13249     13244     13243     13248     13250
     13245     13243     13248     13249     13245     13243     13248     13250
     13245     13248     13250     13251     13245     13248     13250     13252
     13245     13248     13250     13253     13246     13245     13243     13248
     13246     13245     13248     13249     13246     13245     13248     13250
     13247     13245     13243     13248     13247     13245     13248     13249
     13247     13245     13248     13250     13248     13250     13253     13254
     13248     13250     13253     13255     13248     13250     13253     13256
     13249     13248     13250     13251     13249     13248     13250     13252
     13249     13248     13250     13253     13250     13253     13256     13257
     13250     13253     13256     13258     13250     13253     13256     13259
     13251     13250     13253     13254     13251     13250     13253     13255
     13251     13250     13253     13256     13252     13250     13253     13254
     13252     13250     13253     13255     13252     13250     13253     13256
     13253     13256     13259     13260     13253     13256     13259     13261
     13253     13256     13259     13262     13254     13253     13256     13257
     13254     13253     13256     13258     13254     13253     13256     13259
     13255     13253     13256     13257     13255     13253     13256     13258
     13255     13253     13256     13259     13256     13259     13262     13263
     13256     13259     13262     13264     13256     13259     13262     13265
     13257     13256     13259     13260     13257     13256     13259     13261
     13257     13256     13259     13262     13258     13256     13259     13260
     13258     13256     13259     13261     13258     13256     13259     13262
     13259     13262     13265     13266     13259     13262     13265     13267
     13259     13262     13265     13268     13260     13259     13262     13263
     13260     13259     13262     13264     13260     13259     13262     13265
     13261     13259     13262     13263     13261     13259     13262     13264
     13261     13259     13262     13265     13263     13262     13265     13266
     13263     13262     13265     13267     13263     13262     13265     13268
     13264     13262     13265     13266     13264     13262     13265     13267
     13264     13262     13265     13268     13269     13272     13275     13276
     13269     13272     13275     13277     13269     13272     13275     13278
     13270     13269     13272     13273     13270     13269     13272     13274
     13270     13269     13272     13275     13271     13269     13272     13273
     13271     13269     13272     13274     13271     13269     13272     13275
     13272     13275     13278     13279     13272     13275     13278     13280
     13272     13275     13278     13281     13273     13272     13275     13276
     13273     13272     13275     13277     13273     13272     13275     13278
     13274     13272     13275     13276     13274     13272     13275     13277
     13274     13272     13275     13278     13275     13278     13281     13282
     13275     13278     13281     13283     13275     13278     13281     13284
     13276     13275     13278     13279     13276     13275     13278     13280
     13276     13275     13278     13281     13277     13275     13278     13279
     13277     13275     13278     13280     13277     13275     13278     13281
     13278     13281     13284     13285     13278     13281     13284     13286
     13278     13281     13284     13287     13279     13278     13281     13282
     13279     13278     13281     13283     13279     13278     13281     13284
     13280     13278     13281     13282     13280     13278     13281     13283
     13280     13278     13281     13284     13281     13284     13287     13288
     13281     13284     13287     13289     13281     13284     13287     13290
     13282     13281     13284     13285     13282     13281     13284     13286
     13282     13281     13284     13287     13283     13281     13284     13285
     13283     13281     13284     13286     13283     13281     13284     13287
     13284     13287     13290     13291     13284     13287     13290     13292
     13284     13287     13290     13293     13285     13284     13287     13288
     13285     13284     13287     13289     13285     13284     13287     13290
     13286     13284     13287     13288     13286     13284     13287     13289
     13286     13284     13287     13290     13287     13290     13293     13294
     13287     13290     13293     13295     13287     13290     13293     13296
     13288     13287     13290     13291     13288     13287     13290     13292
     13288     13287     13290     13293     13289     13287     13290     13291
     13289     13287     13290     13292     13289     13287     13290     13293
     13290     13293     13296     13297     13290     13293     13296     13298
     13290     13293     13296     13299     13291     13290     13293     13294
     13291     13290     13293     13295     13291     13290     13293     13296
     13292     13290     13293     13294     13292     13290     13293     13295
     13292     13290     13293     13296     13293     13296     13299     13300
     13293     13296     13299     13301     13293     13296     13299     13302
     13294     13293     13296     13297     13294     13293     13296     13298
     13294     13293     13296     13299     13295     13293     13296     13297
     13295     13293     13296     13298     13295     13293     13296     13299
     13296     13299     13302     13303     13296     13299     13302     13304
     13296     13299     13302     13305     13297     13296     13299     13300
     13297     13296     13299     13301     13297     13296     13299     13302
     13298     13296     13299     13300     13298     13296     13299     13301
     13298     13296     13299     13302     13299     13302     13305     13306
     13299     13302     13305     13307     13299     13302     13305     13308
     13300     13299     13302     13303     13300     13299     13302     13304
     13300     13299     13302     13305     13301     13299     13302     13303
     13301     13299     13302     13304     13301     13299     13302     13305
     13302     13305     13308     13309     13302     13305     13308     13310
     13302     13305     13308     13311     13303     13302     13305     13306
     13303     13302     13305     13307     13303     13302     13305     13308
     13304     13302     13305     13306     13304     13302     13305     13307
     13304     13302     13305     13308     13306     13305     13308     13309
     13306     13305     13308     13310     13306     13305     13308     13311
     13307     13305     13308     13309     13307     13305     13308     13310
     13307     13305     13308     13311     13312     13316     13319     13320
     13312     13316     13319     13321     13312     13316     13319     13326
     13313     13312     13316     13317     13313     13312     13316     13318
     13313     13312     13316     13319     13314     13312     13316     13317
     13314     13312     13316     13318     13314     13312     13316     13319
     13315     13312     13316     13317     13315     13312     13316     13318
     13315     13312     13316     13319     13316     13319     13326     13322
     13317     13316     13319     13320     13317     13316     13319     13321
     13317     13316     13319     13326     13318     13316     13319     13320
     13318     13316     13319     13321     13318     13316     13319     13326
     13319     13326     13322     13323     13319     13326     13322     13324
     13319     13326     13322     13325     13320     13319     13326     13322
     13321     13319     13326     13322     13322     13325     13327     13328
     13322     13325     13327     13329     13322     13325     13327     13330
     13323     13322     13325     13327     13324     13322     13325     13327
     13325     13327     13330     13331     13325     13327     13330     13332
     13325     13327     13330     13338     13326     13322     13325     13327
     13327     13330     13332     13333     13327     13330     13338     13339
     13327     13330     13338     13340     13327     13330     13338     13341
     13328     13327     13330     13331     13328     13327     13330     13332
     13328     13327     13330     13338     13329     13327     13330     13331
     13329     13327     13330     13332     13329     13327     13330     13338
     13330     13332     13333     13334     13330     13332     13333     13335
     13330     13338     13341     13342     13331     13330     13332     13333
     13331     13330     13338     13339     13331     13330     13338     13340
     13331     13330     13338     13341     13332     13330     13338     13339
     13332     13330     13338     13340     13332     13330     13338     13341
     13332     13333     13335     13336     13332     13333     13335     13337
     13332     13333     13335     13347     13333     13332     13330     13338
     13333     13335     13347     13348     13333     13335     13347     13349
     13333     13335     13347     13350     13334     13333     13335     13336
     13334     13333     13335     13337     13334     13333     13335     13347
     13335     13347     13350     13351     13335     13347     13350     13352
     13335     13347     13350     13353     13336     13335     13347     13348
     13336     13335     13347     13349     13336     13335     13347     13350
     13337     13335     13347     13348     13337     13335     13347     13349
     13337     13335     13347     13350     13338     13341     13342     13343
     13338     13341     13342     13344     13339     13338     13341     13342
     13340     13338     13341     13342     13341     13342     13344     13345
     13341     13342     13344     13346     13341     13342     13344     13391
     13342     13344     13391     13392     13342     13344     13391     13393
     13342     13344     13391     13394     13343     13342     13344     13345
     13343     13342     13344     13346     13343     13342     13344     13391
     13344     13391     13394     13395     13344     13391     13394     13396
     13344     13391     13394     13397     13345     13344     13391     13392
     13345     13344     13391     13393     13345     13344     13391     13394
     13346     13344     13391     13392     13346     13344     13391     13393
     13346     13344     13391     13394     13347     13350     13353     13354
     13347     13350     13353     13355     13347     13350     13353     13356
     13348     13347     13350     13351     13348     13347     13350     13352
     13348     13347     13350     13353     13349     13347     13350     13351
     13349     13347     13350     13352     13349     13347     13350     13353
     13350     13353     13356     13357     13350     13353     13356     13358
     13350     13353     13356     13359     13351     13350     13353     13354
     13351     13350     13353     13355     13351     13350     13353     13356
     13352     13350     13353     13354     13352     13350     13353     13355
     13352     13350     13353     13356     13353     13356     13359     13360
     13353     13356     13359     13361     13353     13356     13359     13362
     13354     13353     13356     13357     13354     13353     13356     13358
     13354     13353     13356     13359     13355     13353     13356     13357
     13355     13353     13356     13358     13355     13353     13356     13359
     13356     13359     13362     13363     13356     13359     13362     13364
     13356     13359     13362     13365     13357     13356     13359     13360
     13357     13356     13359     13361     13357     13356     13359     13362
     13358     13356     13359     13360     13358     13356     13359     13361
     13358     13356     13359     13362     13359     13362     13365     13366
     13359     13362     13365     13367     13359     13362     13365     13370
     13360     13359     13362     13363     13360     13359     13362     13364
     13360     13359     13362     13365     13361     13359     13362     13363
     13361     13359     13362     13364     13361     13359     13362     13365
     13362     13365     13367     13368     13362     13365     13367     13369
     13362     13365     13367     13370     13362     13365     13370     13367
     13362     13365     13370     13371     13362     13365     13370     13372
     13363     13362     13365     13366     13363     13362     13365     13367
     13363     13362     13365     13370     13364     13362     13365     13366
     13364     13362     13365     13367     13364     13362     13365     13370
     13365     13367     13370     13371     13365     13367     13370     13372
     13365     13370     13367     13368     13365     13370     13367     13369
     13365     13370     13372     13373     13365     13370     13372     13374
     13365     13370     13372     13375     13366     13365     13367     13368
     13366     13365     13367     13369     13366     13365     13367     13370
     13366     13365     13370     13367     13366     13365     13370     13371
     13366     13365     13370     13372     13367     13365     13370     13371
     13367     13365     13370     13372     13367     13370     13372     13373
     13367     13370     13372     13374     13367     13370     13372     13375
     13368     13367     13365     13370     13368     13367     13370     13371
     13368     13367     13370     13372     13369     13367     13365     13370
     13369     13367     13370     13371     13369     13367     13370     13372
     13370     13372     13375     13376     13370     13372     13375     13377
     13370     13372     13375     13378     13371     13370     13372     13373
     13371     13370     13372     13374     13371     13370     13372     13375
     13372     13375     13378     13379     13372     13375     13378     13380
     13372     13375     13378     13381     13373     13372     13375     13376
     13373     13372     13375     13377     13373     13372     13375     13378
     13374     13372     13375     13376     13374     13372     13375     13377
     13374     13372     13375     13378     13375     13378     13381     13382
     13375     13378     13381     13383     13375     13378     13381     13384
     13376     13375     13378     13379     13376     13375     13378     13380
     13376     13375     13378     13381     13377     13375     13378     13379
     13377     13375     13378     13380     13377     13375     13378     13381
     13378     13381     13384     13385     13378     13381     13384     13386
     13378     13381     13384     13387     13379     13378     13381     13382
     13379     13378     13381     13383     13379     13378     13381     13384
     13380     13378     13381     13382     13380     13378     13381     13383
     13380     13378     13381     13384     13381     13384     13387     13388
     13381     13384     13387     13389     13381     13384     13387     13390
     13382     13381     13384     13385     13382     13381     13384     13386
     13382     13381     13384     13387     13383     13381     13384     13385
     13383     13381     13384     13386     13383     13381     13384     13387
     13385     13384     13387     13388     13385     13384     13387     13389
     13385     13384     13387     13390     13386     13384     13387     13388
     13386     13384     13387     13389     13386     13384     13387     13390
     13391     13394     13397     13398     13391     13394     13397     13399
     13391     13394     13397     13400     13392     13391     13394     13395
     13392     13391     13394     13396     13392     13391     13394     13397
     13393     13391     13394     13395     13393     13391     13394     13396
     13393     13391     13394     13397     13394     13397     13400     13401
     13394     13397     13400     13402     13394     13397     13400     13403
     13395     13394     13397     13398     13395     13394     13397     13399
     13395     13394     13397     13400     13396     13394     13397     13398
     13396     13394     13397     13399     13396     13394     13397     13400
     13397     13400     13403     13404     13397     13400     13403     13405
     13397     13400     13403     13406     13398     13397     13400     13401
     13398     13397     13400     13402     13398     13397     13400     13403
     13399     13397     13400     13401     13399     13397     13400     13402
     13399     13397     13400     13403     13400     13403     13406     13407
     13400     13403     13406     13408     13400     13403     13406     13409
     13401     13400     13403     13404     13401     13400     13403     13405
     13401     13400     13403     13406     13402     13400     13403     13404
     13402     13400     13403     13405     13402     13400     13403     13406
     13403     13406     13409     13410     13403     13406     13409     13411
     13403     13406     13409     13412     13404     13403     13406     13407
     13404     13403     13406     13408     13404     13403     13406     13409
     13405     13403     13406     13407     13405     13403     13406     13408
     13405     13403     13406     13409     13406     13409     13412     13413
     13406     13409     13412     13414     13406     13409     13412     13415
     13407     13406     13409     13410     13407     13406     13409     13411
     13407     13406     13409     13412     13408     13406     13409     13410
     13408     13406     13409     13411     13408     13406     13409     13412
     13409     13412     13415     13416     13409     13412     13415     13417
     13409     13412     13415     13418     13410     13409     13412     13413
     13410     13409     13412     13414     13410     13409     13412     13415
     13411     13409     13412     13413     13411     13409     13412     13414
     13411     13409     13412     13415     13412     13415     13418     13419
     13412     13415     13418     13420     13412     13415     13418     13421
     13413     13412     13415     13416     13413     13412     13415     13417
     13413     13412     13415     13418     13414     13412     13415     13416
     13414     13412     13415     13417     13414     13412     13415     13418
     13415     13418     13421     13422     13415     13418     13421     13423
     13415     13418     13421     13424     13416     13415     13418     13419
     13416     13415     13418     13420     13416     13415     13418     13421
     13417     13415     13418     13419     13417     13415     13418     13420
     13417     13415     13418     13421     13418     13421     13424     13425
     13418     13421     13424     13426     13418     13421     13424     13427
     13419     13418     13421     13422     13419     13418     13421     13423
     13419     13418     13421     13424     13420     13418     13421     13422
     13420     13418     13421     13423     13420     13418     13421     13424
     13421     13424     13427     13428     13421     13424     13427     13429
     13421     13424     13427     13430     13422     13421     13424     13425
     13422     13421     13424     13426     13422     13421     13424     13427
     13423     13421     13424     13425     13423     13421     13424     13426
     13423     13421     13424     13427     13424     13427     13430     13431
     13424     13427     13430     13432     13424     13427     13430     13433
     13425     13424     13427     13428     13425     13424     13427     13429
     13425     13424     13427     13430     13426     13424     13427     13428
     13426     13424     13427     13429     13426     13424     13427     13430
     13428     13427     13430     13431     13428     13427     13430     13432
     13428     13427     13430     13433     13429     13427     13430     13431
     13429     13427     13430     13432     13429     13427     13430     13433
     13434     13438     13441     13442     13434     13438     13441     13443
     13434     13438     13441     13448     13435     13434     13438     13439
     13435     13434     13438     13440     13435     13434     13438     13441
     13436     13434     13438     13439     13436     13434     13438     13440
     13436     13434     13438     13441     13437     13434     13438     13439
     13437     13434     13438     13440     13437     13434     13438     13441
     13438     13441     13448     13444     13439     13438     13441     13442
     13439     13438     13441     13443     13439     13438     13441     13448
     13440     13438     13441     13442     13440     13438     13441     13443
     13440     13438     13441     13448     13441     13448     13444     13445
     13441     13448     13444     13446     13441     13448     13444     13447
     13442     13441     13448     13444     13443     13441     13448     13444
     13444     13447     13449     13450     13444     13447     13449     13451
     13444     13447     13449     13452     13445     13444     13447     13449
     13446     13444     13447     13449     13447     13449     13452     13453
     13447     13449     13452     13454     13447     13449     13452     13460
     13448     13444     13447     13449     13449     13452     13454     13455
     13449     13452     13460     13461     13449     13452     13460     13462
     13449     13452     13460     13463     13450     13449     13452     13453
     13450     13449     13452     13454     13450     13449     13452     13460
     13451     13449     13452     13453     13451     13449     13452     13454
     13451     13449     13452     13460     13452     13454     13455     13456
     13452     13454     13455     13457     13452     13460     13463     13464
     13453     13452     13454     13455     13453     13452     13460     13461
     13453     13452     13460     13462     13453     13452     13460     13463
     13454     13452     13460     13461     13454     13452     13460     13462
     13454     13452     13460     13463     13454     13455     13457     13458
     13454     13455     13457     13459     13454     13455     13457     13469
     13455     13454     13452     13460     13455     13457     13469     13470
     13455     13457     13469     13471     13455     13457     13469     13472
     13456     13455     13457     13458     13456     13455     13457     13459
     13456     13455     13457     13469     13457     13469     13472     13473
     13457     13469     13472     13474     13457     13469     13472     13475
     13458     13457     13469     13470     13458     13457     13469     13471
     13458     13457     13469     13472     13459     13457     13469     13470
     13459     13457     13469     13471     13459     13457     13469     13472
     13460     13463     13464     13465     13460     13463     13464     13466
     13461     13460     13463     13464     13462     13460     13463     13464
     13463     13464     13466     13467     13463     13464     13466     13468
     13463     13464     13466     13513     13464     13466     13513     13514
     13464     13466     13513     13515     13464     13466     13513     13516
     13465     13464     13466     13467     13465     13464     13466     13468
     13465     13464     13466     13513     13466     13513     13516     13517
     13466     13513     13516     13518     13466     13513     13516     13519
     13467     13466     13513     13514     13467     13466     13513     13515
     13467     13466     13513     13516     13468     13466     13513     13514
     13468     13466     13513     13515     13468     13466     13513     13516
     13469     13472     13475     13476     13469     13472     13475     13477
     13469     13472     13475     13478     13470     13469     13472     13473
     13470     13469     13472     13474     13470     13469     13472     13475
     13471     13469     13472     13473     13471     13469     13472     13474
     13471     13469     13472     13475     13472     13475     13478     13479
     13472     13475     13478     13480     13472     13475     13478     13481
     13473     13472     13475     13476     13473     13472     13475     13477
     13473     13472     13475     13478     13474     13472     13475     13476
     13474     13472     13475     13477     13474     13472     13475     13478
     13475     13478     13481     13482     13475     13478     13481     13483
     13475     13478     13481     13484     13476     13475     13478     13479
     13476     13475     13478     13480     13476     13475     13478     13481
     13477     13475     13478     13479     13477     13475     13478     13480
     13477     13475     13478     13481     13478     13481     13484     13485
     13478     13481     13484     13486     13478     13481     13484     13487
     13479     13478     13481     13482     13479     13478     13481     13483
     13479     13478     13481     13484     13480     13478     13481     13482
     13480     13478     13481     13483     13480     13478     13481     13484
     13481     13484     13487     13488     13481     13484     13487     13489
     13481     13484     13487     13492     13482     13481     13484     13485
     13482     13481     13484     13486     13482     13481     13484     13487
     13483     13481     13484     13485     13483     13481     13484     13486
     13483     13481     13484     13487     13484     13487     13489     13490
     13484     13487     13489     13491     13484     13487     13489     13492
     13484     13487     13492     13489     13484     13487     13492     13493
     13484     13487     13492     13494     13485     13484     13487     13488
     13485     13484     13487     13489     13485     13484     13487     13492
     13486     13484     13487     13488     13486     13484     13487     13489
     13486     13484     13487     13492     13487     13489     13492     13493
     13487     13489     13492     13494     13487     13492     13489     13490
     13487     13492     13489     13491     13487     13492     13494     13495
     13487     13492     13494     13496     13487     13492     13494     13497
     13488     13487     13489     13490     13488     13487     13489     13491
     13488     13487     13489     13492     13488     13487     13492     13489
     13488     13487     13492     13493     13488     13487     13492     13494
     13489     13487     13492     13493     13489     13487     13492     13494
     13489     13492     13494     13495     13489     13492     13494     13496
     13489     13492     13494     13497     13490     13489     13487     13492
     13490     13489     13492     13493     13490     13489     13492     13494
     13491     13489     13487     13492     13491     13489     13492     13493
     13491     13489     13492     13494     13492     13494     13497     13498
     13492     13494     13497     13499     13492     13494     13497     13500
     13493     13492     13494     13495     13493     13492     13494     13496
     13493     13492     13494     13497     13494     13497     13500     13501
     13494     13497     13500     13502     13494     13497     13500     13503
     13495     13494     13497     13498     13495     13494     13497     13499
     13495     13494     13497     13500     13496     13494     13497     13498
     13496     13494     13497     13499     13496     13494     13497     13500
     13497     13500     13503     13504     13497     13500     13503     13505
     13497     13500     13503     13506     13498     13497     13500     13501
     13498     13497     13500     13502     13498     13497     13500     13503
     13499     13497     13500     13501     13499     13497     13500     13502
     13499     13497     13500     13503     13500     13503     13506     13507
     13500     13503     13506     13508     13500     13503     13506     13509
     13501     13500     13503     13504     13501     13500     13503     13505
     13501     13500     13503     13506     13502     13500     13503     13504
     13502     13500     13503     13505     13502     13500     13503     13506
     13503     13506     13509     13510     13503     13506     13509     13511
     13503     13506     13509     13512     13504     13503     13506     13507
     13504     13503     13506     13508     13504     13503     13506     13509
     13505     13503     13506     13507     13505     13503     13506     13508
     13505     13503     13506     13509     13507     13506     13509     13510
     13507     13506     13509     13511     13507     13506     13509     13512
     13508     13506     13509     13510     13508     13506     13509     13511
     13508     13506     13509     13512     13513     13516     13519     13520
     13513     13516     13519     13521     13513     13516     13519     13522
     13514     13513     13516     13517     13514     13513     13516     13518
     13514     13513     13516     13519     13515     13513     13516     13517
     13515     13513     13516     13518     13515     13513     13516     13519
     13516     13519     13522     13523     13516     13519     13522     13524
     13516     13519     13522     13525     13517     13516     13519     13520
     13517     13516     13519     13521     13517     13516     13519     13522
     13518     13516     13519     13520     13518     13516     13519     13521
     13518     13516     13519     13522     13519     13522     13525     13526
     13519     13522     13525     13527     13519     13522     13525     13528
     13520     13519     13522     13523     13520     13519     13522     13524
     13520     13519     13522     13525     13521     13519     13522     13523
     13521     13519     13522     13524     13521     13519     13522     13525
     13522     13525     13528     13529     13522     13525     13528     13530
     13522     13525     13528     13531     13523     13522     13525     13526
     13523     13522     13525     13527     13523     13522     13525     13528
     13524     13522     13525     13526     13524     13522     13525     13527
     13524     13522     13525     13528     13525     13528     13531     13532
     13525     13528     13531     13533     13525     13528     13531     13534
     13526     13525     13528     13529     13526     13525     13528     13530
     13526     13525     13528     13531     13527     13525     13528     13529
     13527     13525     13528     13530     13527     13525     13528     13531
     13528     13531     13534     13535     13528     13531     13534     13536
     13528     13531     13534     13537     13529     13528     13531     13532
     13529     13528     13531     13533     13529     13528     13531     13534
     13530     13528     13531     13532     13530     13528     13531     13533
     13530     13528     13531     13534     13531     13534     13537     13538
     13531     13534     13537     13539     13531     13534     13537     13540
     13532     13531     13534     13535     13532     13531     13534     13536
     13532     13531     13534     13537     13533     13531     13534     13535
     13533     13531     13534     13536     13533     13531     13534     13537
     13534     13537     13540     13541     13534     13537     13540     13542
     13534     13537     13540     13543     13535     13534     13537     13538
     13535     13534     13537     13539     13535     13534     13537     13540
     13536     13534     13537     13538     13536     13534     13537     13539
     13536     13534     13537     13540     13537     13540     13543     13544
     13537     13540     13543     13545     13537     13540     13543     13546
     13538     13537     13540     13541     13538     13537     13540     13542
     13538     13537     13540     13543     13539     13537     13540     13541
     13539     13537     13540     13542     13539     13537     13540     13543
     13540     13543     13546     13547     13540     13543     13546     13548
     13540     13543     13546     13549     13541     13540     13543     13544
     13541     13540     13543     13545     13541     13540     13543     13546
     13542     13540     13543     13544     13542     13540     13543     13545
     13542     13540     13543     13546     13543     13546     13549     13550
     13543     13546     13549     13551     13543     13546     13549     13552
     13544     13543     13546     13547     13544     13543     13546     13548
     13544     13543     13546     13549     13545     13543     13546     13547
     13545     13543     13546     13548     13545     13543     13546     13549
     13546     13549     13552     13553     13546     13549     13552     13554
     13546     13549     13552     13555     13547     13546     13549     13550
     13547     13546     13549     13551     13547     13546     13549     13552
     13548     13546     13549     13550     13548     13546     13549     13551
     13548     13546     13549     13552     13550     13549     13552     13553
     13550     13549     13552     13554     13550     13549     13552     13555
     13551     13549     13552     13553     13551     13549     13552     13554
     13551     13549     13552     13555     13556     13560     13563     13564
     13556     13560     13563     13565     13556     13560     13563     13570
     13557     13556     13560     13561     13557     13556     13560     13562
     13557     13556     13560     13563     13558     13556     13560     13561
     13558     13556     13560     13562     13558     13556     13560     13563
     13559     13556     13560     13561     13559     13556     13560     13562
     13559     13556     13560     13563     13560     13563     13570     13566
     13561     13560     13563     13564     13561     13560     13563     13565
     13561     13560     13563     13570     13562     13560     13563     13564
     13562     13560     13563     13565     13562     13560     13563     13570
     13563     13570     13566     13567     13563     13570     13566     13568
     13563     13570     13566     13569     13564     13563     13570     13566
     13565     13563     13570     13566     13566     13569     13571     13572
     13566     13569     13571     13573     13566     13569     13571     13574
     13567     13566     13569     13571     13568     13566     13569     13571
     13569     13571     13574     13575     13569     13571     13574     13576
     13569     13571     13574     13582     13570     13566     13569     13571
     13571     13574     13576     13577     13571     13574     13582     13583
     13571     13574     13582     13584     13571     13574     13582     13585
     13572     13571     13574     13575     13572     13571     13574     13576
     13572     13571     13574     13582     13573     13571     13574     13575
     13573     13571     13574     13576     13573     13571     13574     13582
     13574     13576     13577     13578     13574     13576     13577     13579
     13574     13582     13585     13586     13575     13574     13576     13577
     13575     13574     13582     13583     13575     13574     13582     13584
     13575     13574     13582     13585     13576     13574     13582     13583
     13576     13574     13582     13584     13576     13574     13582     13585
     13576     13577     13579     13580     13576     13577     13579     13581
     13576     13577     13579     13591     13577     13576     13574     13582
     13577     13579     13591     13592     13577     13579     13591     13593
     13577     13579     13591     13594     13578     13577     13579     13580
     13578     13577     13579     13581     13578     13577     13579     13591
     13579     13591     13594     13595     13579     13591     13594     13596
     13579     13591     13594     13597     13580     13579     13591     13592
     13580     13579     13591     13593     13580     13579     13591     13594
     13581     13579     13591     13592     13581     13579     13591     13593
     13581     13579     13591     13594     13582     13585     13586     13587
     13582     13585     13586     13588     13583     13582     13585     13586
     13584     13582     13585     13586     13585     13586     13588     13589
     13585     13586     13588     13590     13585     13586     13588     13635
     13586     13588     13635     13636     13586     13588     13635     13637
     13586     13588     13635     13638     13587     13586     13588     13589
     13587     13586     13588     13590     13587     13586     13588     13635
     13588     13635     13638     13639     13588     13635     13638     13640
     13588     13635     13638     13641     13589     13588     13635     13636
     13589     13588     13635     13637     13589     13588     13635     13638
     13590     13588     13635     13636     13590     13588     13635     13637
     13590     13588     13635     13638     13591     13594     13597     13598
     13591     13594     13597     13599     13591     13594     13597     13600
     13592     13591     13594     13595     13592     13591     13594     13596
     13592     13591     13594     13597     13593     13591     13594     13595
     13593     13591     13594     13596     13593     13591     13594     13597
     13594     13597     13600     13601     13594     13597     13600     13602
     13594     13597     13600     13603     13595     13594     13597     13598
     13595     13594     13597     13599     13595     13594     13597     13600
     13596     13594     13597     13598     13596     13594     13597     13599
     13596     13594     13597     13600     13597     13600     13603     13604
     13597     13600     13603     13605     13597     13600     13603     13606
     13598     13597     13600     13601     13598     13597     13600     13602
     13598     13597     13600     13603     13599     13597     13600     13601
     13599     13597     13600     13602     13599     13597     13600     13603
     13600     13603     13606     13607     13600     13603     13606     13608
     13600     13603     13606     13609     13601     13600     13603     13604
     13601     13600     13603     13605     13601     13600     13603     13606
     13602     13600     13603     13604     13602     13600     13603     13605
     13602     13600     13603     13606     13603     13606     13609     13610
     13603     13606     13609     13611     13603     13606     13609     13614
     13604     13603     13606     13607     13604     13603     13606     13608
     13604     13603     13606     13609     13605     13603     13606     13607
     13605     13603     13606     13608     13605     13603     13606     13609
     13606     13609     13611     13612     13606     13609     13611     13613
     13606     13609     13611     13614     13606     13609     13614     13611
     13606     13609     13614     13615     13606     13609     13614     13616
     13607     13606     13609     13610     13607     13606     13609     13611
     13607     13606     13609     13614     13608     13606     13609     13610
     13608     13606     13609     13611     13608     13606     13609     13614
     13609     13611     13614     13615     13609     13611     13614     13616
     13609     13614     13611     13612     13609     13614     13611     13613
     13609     13614     13616     13617     13609     13614     13616     13618
     13609     13614     13616     13619     13610     13609     13611     13612
     13610     13609     13611     13613     13610     13609     13611     13614
     13610     13609     13614     13611     13610     13609     13614     13615
     13610     13609     13614     13616     13611     13609     13614     13615
     13611     13609     13614     13616     13611     13614     13616     13617
     13611     13614     13616     13618     13611     13614     13616     13619
     13612     13611     13609     13614     13612     13611     13614     13615
     13612     13611     13614     13616     13613     13611     13609     13614
     13613     13611     13614     13615     13613     13611     13614     13616
     13614     13616     13619     13620     13614     13616     13619     13621
     13614     13616     13619     13622     13615     13614     13616     13617
     13615     13614     13616     13618     13615     13614     13616     13619
     13616     13619     13622     13623     13616     13619     13622     13624
     13616     13619     13622     13625     13617     13616     13619     13620
     13617     13616     13619     13621     13617     13616     13619     13622
     13618     13616     13619     13620     13618     13616     13619     13621
     13618     13616     13619     13622     13619     13622     13625     13626
     13619     13622     13625     13627     13619     13622     13625     13628
     13620     13619     13622     13623     13620     13619     13622     13624
     13620     13619     13622     13625     13621     13619     13622     13623
     13621     13619     13622     13624     13621     13619     13622     13625
     13622     13625     13628     13629     13622     13625     13628     13630
     13622     13625     13628     13631     13623     13622     13625     13626
     13623     13622     13625     13627     13623     13622     13625     13628
     13624     13622     13625     13626     13624     13622     13625     13627
     13624     13622     13625     13628     13625     13628     13631     13632
     13625     13628     13631     13633     13625     13628     13631     13634
     13626     13625     13628     13629     13626     13625     13628     13630
     13626     13625     13628     13631     13627     13625     13628     13629
     13627     13625     13628     13630     13627     13625     13628     13631
     13629     13628     13631     13632     13629     13628     13631     13633
     13629     13628     13631     13634     13630     13628     13631     13632
     13630     13628     13631     13633     13630     13628     13631     13634
     13635     13638     13641     13642     13635     13638     13641     13643
     13635     13638     13641     13644     13636     13635     13638     13639
     13636     13635     13638     13640     13636     13635     13638     13641
     13637     13635     13638     13639     13637     13635     13638     13640
     13637     13635     13638     13641     13638     13641     13644     13645
     13638     13641     13644     13646     13638     13641     13644     13647
     13639     13638     13641     13642     13639     13638     13641     13643
     13639     13638     13641     13644     13640     13638     13641     13642
     13640     13638     13641     13643     13640     13638     13641     13644
     13641     13644     13647     13648     13641     13644     13647     13649
     13641     13644     13647     13650     13642     13641     13644     13645
     13642     13641     13644     13646     13642     13641     13644     13647
     13643     13641     13644     13645     13643     13641     13644     13646
     13643     13641     13644     13647     13644     13647     13650     13651
     13644     13647     13650     13652     13644     13647     13650     13653
     13645     13644     13647     13648     13645     13644     13647     13649
     13645     13644     13647     13650     13646     13644     13647     13648
     13646     13644     13647     13649     13646     13644     13647     13650
     13647     13650     13653     13654     13647     13650     13653     13655
     13647     13650     13653     13656     13648     13647     13650     13651
     13648     13647     13650     13652     13648     13647     13650     13653
     13649     13647     13650     13651     13649     13647     13650     13652
     13649     13647     13650     13653     13650     13653     13656     13657
     13650     13653     13656     13658     13650     13653     13656     13659
     13651     13650     13653     13654     13651     13650     13653     13655
     13651     13650     13653     13656     13652     13650     13653     13654
     13652     13650     13653     13655     13652     13650     13653     13656
     13653     13656     13659     13660     13653     13656     13659     13661
     13653     13656     13659     13662     13654     13653     13656     13657
     13654     13653     13656     13658     13654     13653     13656     13659
     13655     13653     13656     13657     13655     13653     13656     13658
     13655     13653     13656     13659     13656     13659     13662     13663
     13656     13659     13662     13664     13656     13659     13662     13665
     13657     13656     13659     13660     13657     13656     13659     13661
     13657     13656     13659     13662     13658     13656     13659     13660
     13658     13656     13659     13661     13658     13656     13659     13662
     13659     13662     13665     13666     13659     13662     13665     13667
     13659     13662     13665     13668     13660     13659     13662     13663
     13660     13659     13662     13664     13660     13659     13662     13665
     13661     13659     13662     13663     13661     13659     13662     13664
     13661     13659     13662     13665     13662     13665     13668     13669
     13662     13665     13668     13670     13662     13665     13668     13671
     13663     13662     13665     13666     13663     13662     13665     13667
     13663     13662     13665     13668     13664     13662     13665     13666
     13664     13662     13665     13667     13664     13662     13665     13668
     13665     13668     13671     13672     13665     13668     13671     13673
     13665     13668     13671     13674     13666     13665     13668     13669
     13666     13665     13668     13670     13666     13665     13668     13671
     13667     13665     13668     13669     13667     13665     13668     13670
     13667     13665     13668     13671     13668     13671     13674     13675
     13668     13671     13674     13676     13668     13671     13674     13677
     13669     13668     13671     13672     13669     13668     13671     13673
     13669     13668     13671     13674     13670     13668     13671     13672
     13670     13668     13671     13673     13670     13668     13671     13674
     13672     13671     13674     13675     13672     13671     13674     13676
     13672     13671     13674     13677     13673     13671     13674     13675
     13673     13671     13674     13676     13673     13671     13674     13677
     13678     13682     13685     13686     13678     13682     13685     13687
     13678     13682     13685     13692     13679     13678     13682     13683
     13679     13678     13682     13684     13679     13678     13682     13685
     13680     13678     13682     13683     13680     13678     13682     13684
     13680     13678     13682     13685     13681     13678     13682     13683
     13681     13678     13682     13684     13681     13678     13682     13685
     13682     13685     13692     13688     13683     13682     13685     13686
     13683     13682     13685     13687     13683     13682     13685     13692
     13684     13682     13685     13686     13684     13682     13685     13687
     13684     13682     13685     13692     13685     13692     13688     13689
     13685     13692     13688     13690     13685     13692     13688     13691
     13686     13685     13692     13688     13687     13685     13692     13688
     13688     13691     13693     13694     13688     13691     13693     13695
     13688     13691     13693     13696     13689     13688     13691     13693
     13690     13688     13691     13693     13691     13693     13696     13697
     13691     13693     13696     13698     13691     13693     13696     13704
     13692     13688     13691     13693     13693     13696     13698     13699
     13693     13696     13704     13705     13693     13696     13704     13706
     13693     13696     13704     13707     13694     13693     13696     13697
     13694     13693     13696     13698     13694     13693     13696     13704
     13695     13693     13696     13697     13695     13693     13696     13698
     13695     13693     13696     13704     13696     13698     13699     13700
     13696     13698     13699     13701     13696     13704     13707     13708
     13697     13696     13698     13699     13697     13696     13704     13705
     13697     13696     13704     13706     13697     13696     13704     13707
     13698     13696     13704     13705     13698     13696     13704     13706
     13698     13696     13704     13707     13698     13699     13701     13702
     13698     13699     13701     13703     13698     13699     13701     13713
     13699     13698     13696     13704     13699     13701     13713     13714
     13699     13701     13713     13715     13699     13701     13713     13716
     13700     13699     13701     13702     13700     13699     13701     13703
     13700     13699     13701     13713     13701     13713     13716     13717
     13701     13713     13716     13718     13701     13713     13716     13719
     13702     13701     13713     13714     13702     13701     13713     13715
     13702     13701     13713     13716     13703     13701     13713     13714
     13703     13701     13713     13715     13703     13701     13713     13716
     13704     13707     13708     13709     13704     13707     13708     13710
     13705     13704     13707     13708     13706     13704     13707     13708
     13707     13708     13710     13711     13707     13708     13710     13712
     13707     13708     13710     13757     13708     13710     13757     13758
     13708     13710     13757     13759     13708     13710     13757     13760
     13709     13708     13710     13711     13709     13708     13710     13712
     13709     13708     13710     13757     13710     13757     13760     13761
     13710     13757     13760     13762     13710     13757     13760     13763
     13711     13710     13757     13758     13711     13710     13757     13759
     13711     13710     13757     13760     13712     13710     13757     13758
     13712     13710     13757     13759     13712     13710     13757     13760
     13713     13716     13719     13720     13713     13716     13719     13721
     13713     13716     13719     13722     13714     13713     13716     13717
     13714     13713     13716     13718     13714     13713     13716     13719
     13715     13713     13716     13717     13715     13713     13716     13718
     13715     13713     13716     13719     13716     13719     13722     13723
     13716     13719     13722     13724     13716     13719     13722     13725
     13717     13716     13719     13720     13717     13716     13719     13721
     13717     13716     13719     13722     13718     13716     13719     13720
     13718     13716     13719     13721     13718     13716     13719     13722
     13719     13722     13725     13726     13719     13722     13725     13727
     13719     13722     13725     13728     13720     13719     13722     13723
     13720     13719     13722     13724     13720     13719     13722     13725
     13721     13719     13722     13723     13721     13719     13722     13724
     13721     13719     13722     13725     13722     13725     13728     13729
     13722     13725     13728     13730     13722     13725     13728     13731
     13723     13722     13725     13726     13723     13722     13725     13727
     13723     13722     13725     13728     13724     13722     13725     13726
     13724     13722     13725     13727     13724     13722     13725     13728
     13725     13728     13731     13732     13725     13728     13731     13733
     13725     13728     13731     13736     13726     13725     13728     13729
     13726     13725     13728     13730     13726     13725     13728     13731
     13727     13725     13728     13729     13727     13725     13728     13730
     13727     13725     13728     13731     13728     13731     13733     13734
     13728     13731     13733     13735     13728     13731     13733     13736
     13728     13731     13736     13733     13728     13731     13736     13737
     13728     13731     13736     13738     13729     13728     13731     13732
     13729     13728     13731     13733     13729     13728     13731     13736
     13730     13728     13731     13732     13730     13728     13731     13733
     13730     13728     13731     13736     13731     13733     13736     13737
     13731     13733     13736     13738     13731     13736     13733     13734
     13731     13736     13733     13735     13731     13736     13738     13739
     13731     13736     13738     13740     13731     13736     13738     13741
     13732     13731     13733     13734     13732     13731     13733     13735
     13732     13731     13733     13736     13732     13731     13736     13733
     13732     13731     13736     13737     13732     13731     13736     13738
     13733     13731     13736     13737     13733     13731     13736     13738
     13733     13736     13738     13739     13733     13736     13738     13740
     13733     13736     13738     13741     13734     13733     13731     13736
     13734     13733     13736     13737     13734     13733     13736     13738
     13735     13733     13731     13736     13735     13733     13736     13737
     13735     13733     13736     13738     13736     13738     13741     13742
     13736     13738     13741     13743     13736     13738     13741     13744
     13737     13736     13738     13739     13737     13736     13738     13740
     13737     13736     13738     13741     13738     13741     13744     13745
     13738     13741     13744     13746     13738     13741     13744     13747
     13739     13738     13741     13742     13739     13738     13741     13743
     13739     13738     13741     13744     13740     13738     13741     13742
     13740     13738     13741     13743     13740     13738     13741     13744
     13741     13744     13747     13748     13741     13744     13747     13749
     13741     13744     13747     13750     13742     13741     13744     13745
     13742     13741     13744     13746     13742     13741     13744     13747
     13743     13741     13744     13745     13743     13741     13744     13746
     13743     13741     13744     13747     13744     13747     13750     13751
     13744     13747     13750     13752     13744     13747     13750     13753
     13745     13744     13747     13748     13745     13744     13747     13749
     13745     13744     13747     13750     13746     13744     13747     13748
     13746     13744     13747     13749     13746     13744     13747     13750
     13747     13750     13753     13754     13747     13750     13753     13755
     13747     13750     13753     13756     13748     13747     13750     13751
     13748     13747     13750     13752     13748     13747     13750     13753
     13749     13747     13750     13751     13749     13747     13750     13752
     13749     13747     13750     13753     13751     13750     13753     13754
     13751     13750     13753     13755     13751     13750     13753     13756
     13752     13750     13753     13754     13752     13750     13753     13755
     13752     13750     13753     13756     13757     13760     13763     13764
     13757     13760     13763     13765     13757     13760     13763     13766
     13758     13757     13760     13761     13758     13757     13760     13762
     13758     13757     13760     13763     13759     13757     13760     13761
     13759     13757     13760     13762     13759     13757     13760     13763
     13760     13763     13766     13767     13760     13763     13766     13768
     13760     13763     13766     13769     13761     13760     13763     13764
     13761     13760     13763     13765     13761     13760     13763     13766
     13762     13760     13763     13764     13762     13760     13763     13765
     13762     13760     13763     13766     13763     13766     13769     13770
     13763     13766     13769     13771     13763     13766     13769     13772
     13764     13763     13766     13767     13764     13763     13766     13768
     13764     13763     13766     13769     13765     13763     13766     13767
     13765     13763     13766     13768     13765     13763     13766     13769
     13766     13769     13772     13773     13766     13769     13772     13774
     13766     13769     13772     13775     13767     13766     13769     13770
     13767     13766     13769     13771     13767     13766     13769     13772
     13768     13766     13769     13770     13768     13766     13769     13771
     13768     13766     13769     13772     13769     13772     13775     13776
     13769     13772     13775     13777     13769     13772     13775     13778
     13770     13769     13772     13773     13770     13769     13772     13774
     13770     13769     13772     13775     13771     13769     13772     13773
     13771     13769     13772     13774     13771     13769     13772     13775
     13772     13775     13778     13779     13772     13775     13778     13780
     13772     13775     13778     13781     13773     13772     13775     13776
     13773     13772     13775     13777     13773     13772     13775     13778
     13774     13772     13775     13776     13774     13772     13775     13777
     13774     13772     13775     13778     13775     13778     13781     13782
     13775     13778     13781     13783     13775     13778     13781     13784
     13776     13775     13778     13779     13776     13775     13778     13780
     13776     13775     13778     13781     13777     13775     13778     13779
     13777     13775     13778     13780     13777     13775     13778     13781
     13778     13781     13784     13785     13778     13781     13784     13786
     13778     13781     13784     13787     13779     13778     13781     13782
     13779     13778     13781     13783     13779     13778     13781     13784
     13780     13778     13781     13782     13780     13778     13781     13783
     13780     13778     13781     13784     13781     13784     13787     13788
     13781     13784     13787     13789     13781     13784     13787     13790
     13782     13781     13784     13785     13782     13781     13784     13786
     13782     13781     13784     13787     13783     13781     13784     13785
     13783     13781     13784     13786     13783     13781     13784     13787
     13784     13787     13790     13791     13784     13787     13790     13792
     13784     13787     13790     13793     13785     13784     13787     13788
     13785     13784     13787     13789     13785     13784     13787     13790
     13786     13784     13787     13788     13786     13784     13787     13789
     13786     13784     13787     13790     13787     13790     13793     13794
     13787     13790     13793     13795     13787     13790     13793     13796
     13788     13787     13790     13791     13788     13787     13790     13792
     13788     13787     13790     13793     13789     13787     13790     13791
     13789     13787     13790     13792     13789     13787     13790     13793
     13790     13793     13796     13797     13790     13793     13796     13798
     13790     13793     13796     13799     13791     13790     13793     13794
     13791     13790     13793     13795     13791     13790     13793     13796
     13792     13790     13793     13794     13792     13790     13793     13795
     13792     13790     13793     13796     13794     13793     13796     13797
     13794     13793     13796     13798     13794     13793     13796     13799
     13795     13793     13796     13797     13795     13793     13796     13798
     13795     13793     13796     13799     13800     13804     13807     13808
     13800     13804     13807     13809     13800     13804     13807     13814
     13801     13800     13804     13805     13801     13800     13804     13806
     13801     13800     13804     13807     13802     13800     13804     13805
     13802     13800     13804     13806     13802     13800     13804     13807
     13803     13800     13804     13805     13803     13800     13804     13806
     13803     13800     13804     13807     13804     13807     13814     13810
     13805     13804     13807     13808     13805     13804     13807     13809
     13805     13804     13807     13814     13806     13804     13807     13808
     13806     13804     13807     13809     13806     13804     13807     13814
     13807     13814     13810     13811     13807     13814     13810     13812
     13807     13814     13810     13813     13808     13807     13814     13810
     13809     13807     13814     13810     13810     13813     13815     13816
     13810     13813     13815     13817     13810     13813     13815     13818
     13811     13810     13813     13815     13812     13810     13813     13815
     13813     13815     13818     13819     13813     13815     13818     13820
     13813     13815     13818     13826     13814     13810     13813     13815
     13815     13818     13820     13821     13815     13818     13826     13827
     13815     13818     13826     13828     13815     13818     13826     13829
     13816     13815     13818     13819     13816     13815     13818     13820
     13816     13815     13818     13826     13817     13815     13818     13819
     13817     13815     13818     13820     13817     13815     13818     13826
     13818     13820     13821     13822     13818     13820     13821     13823
     13818     13826     13829     13830     13819     13818     13820     13821
     13819     13818     13826     13827     13819     13818     13826     13828
     13819     13818     13826     13829     13820     13818     13826     13827
     13820     13818     13826     13828     13820     13818     13826     13829
     13820     13821     13823     13824     13820     13821     13823     13825
     13820     13821     13823     13835     13821     13820     13818     13826
     13821     13823     13835     13836     13821     13823     13835     13837
     13821     13823     13835     13838     13822     13821     13823     13824
     13822     13821     13823     13825     13822     13821     13823     13835
     13823     13835     13838     13839     13823     13835     13838     13840
     13823     13835     13838     13841     13824     13823     13835     13836
     13824     13823     13835     13837     13824     13823     13835     13838
     13825     13823     13835     13836     13825     13823     13835     13837
     13825     13823     13835     13838     13826     13829     13830     13831
     13826     13829     13830     13832     13827     13826     13829     13830
     13828     13826     13829     13830     13829     13830     13832     13833
     13829     13830     13832     13834     13829     13830     13832     13879
     13830     13832     13879     13880     13830     13832     13879     13881
     13830     13832     13879     13882     13831     13830     13832     13833
     13831     13830     13832     13834     13831     13830     13832     13879
     13832     13879     13882     13883     13832     13879     13882     13884
     13832     13879     13882     13885     13833     13832     13879     13880
     13833     13832     13879     13881     13833     13832     13879     13882
     13834     13832     13879     13880     13834     13832     13879     13881
     13834     13832     13879     13882     13835     13838     13841     13842
     13835     13838     13841     13843     13835     13838     13841     13844
     13836     13835     13838     13839     13836     13835     13838     13840
     13836     13835     13838     13841     13837     13835     13838     13839
     13837     13835     13838     13840     13837     13835     13838     13841
     13838     13841     13844     13845     13838     13841     13844     13846
     13838     13841     13844     13847     13839     13838     13841     13842
     13839     13838     13841     13843     13839     13838     13841     13844
     13840     13838     13841     13842     13840     13838     13841     13843
     13840     13838     13841     13844     13841     13844     13847     13848
     13841     13844     13847     13849     13841     13844     13847     13850
     13842     13841     13844     13845     13842     13841     13844     13846
     13842     13841     13844     13847     13843     13841     13844     13845
     13843     13841     13844     13846     13843     13841     13844     13847
     13844     13847     13850     13851     13844     13847     13850     13852
     13844     13847     13850     13853     13845     13844     13847     13848
     13845     13844     13847     13849     13845     13844     13847     13850
     13846     13844     13847     13848     13846     13844     13847     13849
     13846     13844     13847     13850     13847     13850     13853     13854
     13847     13850     13853     13855     13847     13850     13853     13858
     13848     13847     13850     13851     13848     13847     13850     13852
     13848     13847     13850     13853     13849     13847     13850     13851
     13849     13847     13850     13852     13849     13847     13850     13853
     13850     13853     13855     13856     13850     13853     13855     13857
     13850     13853     13855     13858     13850     13853     13858     13855
     13850     13853     13858     13859     13850     13853     13858     13860
     13851     13850     13853     13854     13851     13850     13853     13855
     13851     13850     13853     13858     13852     13850     13853     13854
     13852     13850     13853     13855     13852     13850     13853     13858
     13853     13855     13858     13859     13853     13855     13858     13860
     13853     13858     13855     13856     13853     13858     13855     13857
     13853     13858     13860     13861     13853     13858     13860     13862
     13853     13858     13860     13863     13854     13853     13855     13856
     13854     13853     13855     13857     13854     13853     13855     13858
     13854     13853     13858     13855     13854     13853     13858     13859
     13854     13853     13858     13860     13855     13853     13858     13859
     13855     13853     13858     13860     13855     13858     13860     13861
     13855     13858     13860     13862     13855     13858     13860     13863
     13856     13855     13853     13858     13856     13855     13858     13859
     13856     13855     13858     13860     13857     13855     13853     13858
     13857     13855     13858     13859     13857     13855     13858     13860
     13858     13860     13863     13864     13858     13860     13863     13865
     13858     13860     13863     13866     13859     13858     13860     13861
     13859     13858     13860     13862     13859     13858     13860     13863
     13860     13863     13866     13867     13860     13863     13866     13868
     13860     13863     13866     13869     13861     13860     13863     13864
     13861     13860     13863     13865     13861     13860     13863     13866
     13862     13860     13863     13864     13862     13860     13863     13865
     13862     13860     13863     13866     13863     13866     13869     13870
     13863     13866     13869     13871     13863     13866     13869     13872
     13864     13863     13866     13867     13864     13863     13866     13868
     13864     13863     13866     13869     13865     13863     13866     13867
     13865     13863     13866     13868     13865     13863     13866     13869
     13866     13869     13872     13873     13866     13869     13872     13874
     13866     13869     13872     13875     13867     13866     13869     13870
     13867     13866     13869     13871     13867     13866     13869     13872
     13868     13866     13869     13870     13868     13866     13869     13871
     13868     13866     13869     13872     13869     13872     13875     13876
     13869     13872     13875     13877     13869     13872     13875     13878
     13870     13869     13872     13873     13870     13869     13872     13874
     13870     13869     13872     13875     13871     13869     13872     13873
     13871     13869     13872     13874     13871     13869     13872     13875
     13873     13872     13875     13876     13873     13872     13875     13877
     13873     13872     13875     13878     13874     13872     13875     13876
     13874     13872     13875     13877     13874     13872     13875     13878
     13879     13882     13885     13886     13879     13882     13885     13887
     13879     13882     13885     13888     13880     13879     13882     13883
     13880     13879     13882     13884     13880     13879     13882     13885
     13881     13879     13882     13883     13881     13879     13882     13884
     13881     13879     13882     13885     13882     13885     13888     13889
     13882     13885     13888     13890     13882     13885     13888     13891
     13883     13882     13885     13886     13883     13882     13885     13887
     13883     13882     13885     13888     13884     13882     13885     13886
     13884     13882     13885     13887     13884     13882     13885     13888
     13885     13888     13891     13892     13885     13888     13891     13893
     13885     13888     13891     13894     13886     13885     13888     13889
     13886     13885     13888     13890     13886     13885     13888     13891
     13887     13885     13888     13889     13887     13885     13888     13890
     13887     13885     13888     13891     13888     13891     13894     13895
     13888     13891     13894     13896     13888     13891     13894     13897
     13889     13888     13891     13892     13889     13888     13891     13893
     13889     13888     13891     13894     13890     13888     13891     13892
     13890     13888     13891     13893     13890     13888     13891     13894
     13891     13894     13897     13898     13891     13894     13897     13899
     13891     13894     13897     13900     13892     13891     13894     13895
     13892     13891     13894     13896     13892     13891     13894     13897
     13893     13891     13894     13895     13893     13891     13894     13896
     13893     13891     13894     13897     13894     13897     13900     13901
     13894     13897     13900     13902     13894     13897     13900     13903
     13895     13894     13897     13898     13895     13894     13897     13899
     13895     13894     13897     13900     13896     13894     13897     13898
     13896     13894     13897     13899     13896     13894     13897     13900
     13897     13900     13903     13904     13897     13900     13903     13905
     13897     13900     13903     13906     13898     13897     13900     13901
     13898     13897     13900     13902     13898     13897     13900     13903
     13899     13897     13900     13901     13899     13897     13900     13902
     13899     13897     13900     13903     13900     13903     13906     13907
     13900     13903     13906     13908     13900     13903     13906     13909
     13901     13900     13903     13904     13901     13900     13903     13905
     13901     13900     13903     13906     13902     13900     13903     13904
     13902     13900     13903     13905     13902     13900     13903     13906
     13903     13906     13909     13910     13903     13906     13909     13911
     13903     13906     13909     13912     13904     13903     13906     13907
     13904     13903     13906     13908     13904     13903     13906     13909
     13905     13903     13906     13907     13905     13903     13906     13908
     13905     13903     13906     13909     13906     13909     13912     13913
     13906     13909     13912     13914     13906     13909     13912     13915
     13907     13906     13909     13910     13907     13906     13909     13911
     13907     13906     13909     13912     13908     13906     13909     13910
     13908     13906     13909     13911     13908     13906     13909     13912
     13909     13912     13915     13916     13909     13912     13915     13917
     13909     13912     13915     13918     13910     13909     13912     13913
     13910     13909     13912     13914     13910     13909     13912     13915
     13911     13909     13912     13913     13911     13909     13912     13914
     13911     13909     13912     13915     13913     13912     13915     13916
     13913     13912     13915     13917     13913     13912     13915     13918
     13914     13912     13915     13916     13914     13912     13915     13917
     13914     13912     13915     13918     13919     13924     13926     13927
     13919     13924     13928     13929     13919     13924     13928     13930
     13919     13924     13928     13935     13920     13919     13922     13923
     13920     13919     13924     13925     13920     13919     13924     13926
     13920     13919     13924     13928     13921     13919     13922     13923
     13921     13919     13924     13925     13921     13919     13924     13926
     13921     13919     13924     13928     13922     13919     13924     13925
     13922     13919     13924     13926     13922     13919     13924     13928
     13923     13922     13919     13924     13924     13928     13935     13931
     13925     13924     13926     13927     13925     13924     13928     13929
     13925     13924     13928     13930     13925     13924     13928     13935
     13926     13924     13928     13929     13926     13924     13928     13930
     13926     13924     13928     13935     13927     13926     13924     13928
     13928     13935     13931     13932     13928     13935     13931     13933
     13928     13935     13931     13934     13929     13928     13935     13931
     13930     13928     13935     13931     13931     13934     13936     13937
     13931     13934     13936     13938     13931     13934     13936     13939
     13932     13931     13934     13936     13933     13931     13934     13936
     13934     13936     13939     13940     13934     13936     13939     13941
     13934     13936     13939     13947     13935     13931     13934     13936
     13936     13939     13941     13942     13936     13939     13947     13948
     13936     13939     13947     13949     13936     13939     13947     13950
     13937     13936     13939     13940     13937     13936     13939     13941
     13937     13936     13939     13947     13938     13936     13939     13940
     13938     13936     13939     13941     13938     13936     13939     13947
     13939     13941     13942     13943     13939     13941     13942     13944
     13939     13947     13950     13951     13940     13939     13941     13942
     13940     13939     13947     13948     13940     13939     13947     13949
     13940     13939     13947     13950     13941     13939     13947     13948
     13941     13939     13947     13949     13941     13939     13947     13950
     13941     13942     13944     13945     13941     13942     13944     13946
     13941     13942     13944     13956     13942     13941     13939     13947
     13942     13944     13956     13957     13942     13944     13956     13958
     13942     13944     13956     13959     13943     13942     13944     13945
     13943     13942     13944     13946     13943     13942     13944     13956
     13944     13956     13959     13960     13944     13956     13959     13961
     13944     13956     13959     13962     13945     13944     13956     13957
     13945     13944     13956     13958     13945     13944     13956     13959
     13946     13944     13956     13957     13946     13944     13956     13958
     13946     13944     13956     13959     13947     13950     13951     13952
     13947     13950     13951     13953     13948     13947     13950     13951
     13949     13947     13950     13951     13950     13951     13953     13954
     13950     13951     13953     13955     13950     13951     13953     14000
     13951     13953     14000     14001     13951     13953     14000     14002
     13951     13953     14000     14003     13952     13951     13953     13954
     13952     13951     13953     13955     13952     13951     13953     14000
     13953     14000     14003     14004     13953     14000     14003     14005
     13953     14000     14003     14006     13954     13953     14000     14001
     13954     13953     14000     14002     13954     13953     14000     14003
     13955     13953     14000     14001     13955     13953     14000     14002
     13955     13953     14000     14003     13956     13959     13962     13963
     13956     13959     13962     13964     13956     13959     13962     13965
     13957     13956     13959     13960     13957     13956     13959     13961
     13957     13956     13959     13962     13958     13956     13959     13960
     13958     13956     13959     13961     13958     13956     13959     13962
     13959     13962     13965     13966     13959     13962     13965     13967
     13959     13962     13965     13968     13960     13959     13962     13963
     13960     13959     13962     13964     13960     13959     13962     13965
     13961     13959     13962     13963     13961     13959     13962     13964
     13961     13959     13962     13965     13962     13965     13968     13969
     13962     13965     13968     13970     13962     13965     13968     13971
     13963     13962     13965     13966     13963     13962     13965     13967
     13963     13962     13965     13968     13964     13962     13965     13966
     13964     13962     13965     13967     13964     13962     13965     13968
     13965     13968     13971     13972     13965     13968     13971     13973
     13965     13968     13971     13974     13966     13965     13968     13969
     13966     13965     13968     13970     13966     13965     13968     13971
     13967     13965     13968     13969     13967     13965     13968     13970
     13967     13965     13968     13971     13968     13971     13974     13975
     13968     13971     13974     13976     13968     13971     13974     13979
     13969     13968     13971     13972     13969     13968     13971     13973
     13969     13968     13971     13974     13970     13968     13971     13972
     13970     13968     13971     13973     13970     13968     13971     13974
     13971     13974     13976     13977     13971     13974     13976     13978
     13971     13974     13976     13979     13971     13974     13979     13976
     13971     13974     13979     13980     13971     13974     13979     13981
     13972     13971     13974     13975     13972     13971     13974     13976
     13972     13971     13974     13979     13973     13971     13974     13975
     13973     13971     13974     13976     13973     13971     13974     13979
     13974     13976     13979     13980     13974     13976     13979     13981
     13974     13979     13976     13977     13974     13979     13976     13978
     13974     13979     13981     13982     13974     13979     13981     13983
     13974     13979     13981     13984     13975     13974     13976     13977
     13975     13974     13976     13978     13975     13974     13976     13979
     13975     13974     13979     13976     13975     13974     13979     13980
     13975     13974     13979     13981     13976     13974     13979     13980
     13976     13974     13979     13981     13976     13979     13981     13982
     13976     13979     13981     13983     13976     13979     13981     13984
     13977     13976     13974     13979     13977     13976     13979     13980
     13977     13976     13979     13981     13978     13976     13974     13979
     13978     13976     13979     13980     13978     13976     13979     13981
     13979     13981     13984     13985     13979     13981     13984     13986
     13979     13981     13984     13987     13980     13979     13981     13982
     13980     13979     13981     13983     13980     13979     13981     13984
     13981     13984     13987     13988     13981     13984     13987     13989
     13981     13984     13987     13990     13982     13981     13984     13985
     13982     13981     13984     13986     13982     13981     13984     13987
     13983     13981     13984     13985     13983     13981     13984     13986
     13983     13981     13984     13987     13984     13987     13990     13991
     13984     13987     13990     13992     13984     13987     13990     13993
     13985     13984     13987     13988     13985     13984     13987     13989
     13985     13984     13987     13990     13986     13984     13987     13988
     13986     13984     13987     13989     13986     13984     13987     13990
     13987     13990     13993     13994     13987     13990     13993     13995
     13987     13990     13993     13996     13988     13987     13990     13991
     13988     13987     13990     13992     13988     13987     13990     13993
     13989     13987     13990     13991     13989     13987     13990     13992
     13989     13987     13990     13993     13990     13993     13996     13997
     13990     13993     13996     13998     13990     13993     13996     13999
     13991     13990     13993     13994     13991     13990     13993     13995
     13991     13990     13993     13996     13992     13990     13993     13994
     13992     13990     13993     13995     13992     13990     13993     13996
     13994     13993     13996     13997     13994     13993     13996     13998
     13994     13993     13996     13999     13995     13993     13996     13997
     13995     13993     13996     13998     13995     13993     13996     13999
     14000     14003     14006     14007     14000     14003     14006     14008
     14000     14003     14006     14009     14001     14000     14003     14004
     14001     14000     14003     14005     14001     14000     14003     14006
     14002     14000     14003     14004     14002     14000     14003     14005
     14002     14000     14003     14006     14003     14006     14009     14010
     14003     14006     14009     14011     14003     14006     14009     14012
     14004     14003     14006     14007     14004     14003     14006     14008
     14004     14003     14006     14009     14005     14003     14006     14007
     14005     14003     14006     14008     14005     14003     14006     14009
     14006     14009     14012     14013     14006     14009     14012     14014
     14006     14009     14012     14015     14007     14006     14009     14010
     14007     14006     14009     14011     14007     14006     14009     14012
     14008     14006     14009     14010     14008     14006     14009     14011
     14008     14006     14009     14012     14009     14012     14015     14016
     14009     14012     14015     14017     14009     14012     14015     14018
     14010     14009     14012     14013     14010     14009     14012     14014
     14010     14009     14012     14015     14011     14009     14012     14013
     14011     14009     14012     14014     14011     14009     14012     14015
     14012     14015     14018     14019     14012     14015     14018     14020
     14012     14015     14018     14021     14013     14012     14015     14016
     14013     14012     14015     14017     14013     14012     14015     14018
     14014     14012     14015     14016     14014     14012     14015     14017
     14014     14012     14015     14018     14015     14018     14021     14022
     14015     14018     14021     14023     14015     14018     14021     14024
     14016     14015     14018     14019     14016     14015     14018     14020
     14016     14015     14018     14021     14017     14015     14018     14019
     14017     14015     14018     14020     14017     14015     14018     14021
     14018     14021     14024     14025     14018     14021     14024     14026
     14018     14021     14024     14027     14019     14018     14021     14022
     14019     14018     14021     14023     14019     14018     14021     14024
     14020     14018     14021     14022     14020     14018     14021     14023
     14020     14018     14021     14024     14021     14024     14027     14028
     14021     14024     14027     14029     14021     14024     14027     14030
     14022     14021     14024     14025     14022     14021     14024     14026
     14022     14021     14024     14027     14023     14021     14024     14025
     14023     14021     14024     14026     14023     14021     14024     14027
     14024     14027     14030     14031     14024     14027     14030     14032
     14024     14027     14030     14033     14025     14024     14027     14028
     14025     14024     14027     14029     14025     14024     14027     14030
     14026     14024     14027     14028     14026     14024     14027     14029
     14026     14024     14027     14030     14027     14030     14033     14034
     14027     14030     14033     14035     14027     14030     14033     14036
     14028     14027     14030     14031     14028     14027     14030     14032
     14028     14027     14030     14033     14029     14027     14030     14031
     14029     14027     14030     14032     14029     14027     14030     14033
     14030     14033     14036     14037     14030     14033     14036     14038
     14030     14033     14036     14039     14031     14030     14033     14034
     14031     14030     14033     14035     14031     14030     14033     14036
     14032     14030     14033     14034     14032     14030     14033     14035
     14032     14030     14033     14036     14033     14036     14039     14040
     14033     14036     14039     14041     14033     14036     14039     14042
     14034     14033     14036     14037     14034     14033     14036     14038
     14034     14033     14036     14039     14035     14033     14036     14037
     14035     14033     14036     14038     14035     14033     14036     14039
     14037     14036     14039     14040     14037     14036     14039     14041
     14037     14036     14039     14042     14038     14036     14039     14040
     14038     14036     14039     14041     14038     14036     14039     14042
     14043     14047     14050     14051     14043     14047     14050     14052
     14043     14047     14050     14057     14044     14043     14047     14048
     14044     14043     14047     14049     14044     14043     14047     14050
     14045     14043     14047     14048     14045     14043     14047     14049
     14045     14043     14047     14050     14046     14043     14047     14048
     14046     14043     14047     14049     14046     14043     14047     14050
     14047     14050     14057     14053     14048     14047     14050     14051
     14048     14047     14050     14052     14048     14047     14050     14057
     14049     14047     14050     14051     14049     14047     14050     14052
     14049     14047     14050     14057     14050     14057     14053     14054
     14050     14057     14053     14055     14050     14057     14053     14056
     14051     14050     14057     14053     14052     14050     14057     14053
     14053     14056     14058     14059     14053     14056     14058     14060
     14053     14056     14058     14061     14054     14053     14056     14058
     14055     14053     14056     14058     14056     14058     14061     14062
     14056     14058     14061     14063     14056     14058     14061     14069
     14057     14053     14056     14058     14058     14061     14063     14064
     14058     14061     14069     14070     14058     14061     14069     14071
     14058     14061     14069     14072     14059     14058     14061     14062
     14059     14058     14061     14063     14059     14058     14061     14069
     14060     14058     14061     14062     14060     14058     14061     14063
     14060     14058     14061     14069     14061     14063     14064     14065
     14061     14063     14064     14066     14061     14069     14072     14073
     14062     14061     14063     14064     14062     14061     14069     14070
     14062     14061     14069     14071     14062     14061     14069     14072
     14063     14061     14069     14070     14063     14061     14069     14071
     14063     14061     14069     14072     14063     14064     14066     14067
     14063     14064     14066     14068     14063     14064     14066     14078
     14064     14063     14061     14069     14064     14066     14078     14079
     14064     14066     14078     14080     14064     14066     14078     14081
     14065     14064     14066     14067     14065     14064     14066     14068
     14065     14064     14066     14078     14066     14078     14081     14082
     14066     14078     14081     14083     14066     14078     14081     14084
     14067     14066     14078     14079     14067     14066     14078     14080
     14067     14066     14078     14081     14068     14066     14078     14079
     14068     14066     14078     14080     14068     14066     14078     14081
     14069     14072     14073     14074     14069     14072     14073     14075
     14070     14069     14072     14073     14071     14069     14072     14073
     14072     14073     14075     14076     14072     14073     14075     14077
     14072     14073     14075     14125     14073     14075     14125     14126
     14073     14075     14125     14127     14073     14075     14125     14128
     14074     14073     14075     14076     14074     14073     14075     14077
     14074     14073     14075     14125     14075     14125     14128     14129
     14075     14125     14128     14130     14075     14125     14128     14131
     14076     14075     14125     14126     14076     14075     14125     14127
     14076     14075     14125     14128     14077     14075     14125     14126
     14077     14075     14125     14127     14077     14075     14125     14128
     14078     14081     14084     14085     14078     14081     14084     14086
     14078     14081     14084     14087     14079     14078     14081     14082
     14079     14078     14081     14083     14079     14078     14081     14084
     14080     14078     14081     14082     14080     14078     14081     14083
     14080     14078     14081     14084     14081     14084     14087     14088
     14081     14084     14087     14089     14081     14084     14087     14090
     14082     14081     14084     14085     14082     14081     14084     14086
     14082     14081     14084     14087     14083     14081     14084     14085
     14083     14081     14084     14086     14083     14081     14084     14087
     14084     14087     14090     14091     14084     14087     14090     14092
     14084     14087     14090     14093     14085     14084     14087     14088
     14085     14084     14087     14089     14085     14084     14087     14090
     14086     14084     14087     14088     14086     14084     14087     14089
     14086     14084     14087     14090     14087     14090     14093     14094
     14087     14090     14093     14095     14087     14090     14093     14096
     14088     14087     14090     14091     14088     14087     14090     14092
     14088     14087     14090     14093     14089     14087     14090     14091
     14089     14087     14090     14092     14089     14087     14090     14093
     14090     14093     14096     14097     14090     14093     14096     14098
     14091     14090     14093     14094     14091     14090     14093     14095
     14091     14090     14093     14096     14092     14090     14093     14094
     14092     14090     14093     14095     14092     14090     14093     14096
     14093     14096     14098     14099     14093     14096     14098     14100
     14094     14093     14096     14097     14094     14093     14096     14098
     14095     14093     14096     14097     14095     14093     14096     14098
     14096     14098     14100     14101     14096     14098     14100     14102
     14096     14098     14100     14103     14097     14096     14098     14099
     14097     14096     14098     14100     14098     14100     14103     14104
     14098     14100     14103     14105     14098     14100     14103     14106
     14099     14098     14100     14101     14099     14098     14100     14102
     14099     14098     14100     14103     14100     14103     14106     14107
     14100     14103     14106     14108     14100     14103     14106     14109
     14101     14100     14103     14104     14101     14100     14103     14105
     14101     14100     14103     14106     14102     14100     14103     14104
     14102     14100     14103     14105     14102     14100     14103     14106
     14103     14106     14109     14110     14103     14106     14109     14111
     14103     14106     14109     14112     14104     14103     14106     14107
     14104     14103     14106     14108     14104     14103     14106     14109
     14105     14103     14106     14107     14105     14103     14106     14108
     14105     14103     14106     14109     14106     14109     14112     14113
     14106     14109     14112     14114     14106     14109     14112     14115
     14107     14106     14109     14110     14107     14106     14109     14111
     14107     14106     14109     14112     14108     14106     14109     14110
     14108     14106     14109     14111     14108     14106     14109     14112
     14109     14112     14115     14116     14109     14112     14115     14117
     14109     14112     14115     14118     14110     14109     14112     14113
     14110     14109     14112     14114     14110     14109     14112     14115
     14111     14109     14112     14113     14111     14109     14112     14114
     14111     14109     14112     14115     14112     14115     14118     14119
     14112     14115     14118     14120     14112     14115     14118     14121
     14113     14112     14115     14116     14113     14112     14115     14117
     14113     14112     14115     14118     14114     14112     14115     14116
     14114     14112     14115     14117     14114     14112     14115     14118
     14115     14118     14121     14122     14115     14118     14121     14123
     14115     14118     14121     14124     14116     14115     14118     14119
     14116     14115     14118     14120     14116     14115     14118     14121
     14117     14115     14118     14119     14117     14115     14118     14120
     14117     14115     14118     14121     14119     14118     14121     14122
     14119     14118     14121     14123     14119     14118     14121     14124
     14120     14118     14121     14122     14120     14118     14121     14123
     14120     14118     14121     14124     14125     14128     14131     14132
     14125     14128     14131     14133     14125     14128     14131     14134
     14126     14125     14128     14129     14126     14125     14128     14130
     14126     14125     14128     14131     14127     14125     14128     14129
     14127     14125     14128     14130     14127     14125     14128     14131
     14128     14131     14134     14135     14128     14131     14134     14136
     14128     14131     14134     14137     14129     14128     14131     14132
     14129     14128     14131     14133     14129     14128     14131     14134
     14130     14128     14131     14132     14130     14128     14131     14133
     14130     14128     14131     14134     14131     14134     14137     14138
     14131     14134     14137     14139     14131     14134     14137     14140
     14132     14131     14134     14135     14132     14131     14134     14136
     14132     14131     14134     14137     14133     14131     14134     14135
     14133     14131     14134     14136     14133     14131     14134     14137
     14134     14137     14140     14141     14134     14137     14140     14142
     14134     14137     14140     14143     14135     14134     14137     14138
     14135     14134     14137     14139     14135     14134     14137     14140
     14136     14134     14137     14138     14136     14134     14137     14139
     14136     14134     14137     14140     14137     14140     14143     14144
     14137     14140     14143     14145     14137     14140     14143     14146
     14138     14137     14140     14141     14138     14137     14140     14142
     14138     14137     14140     14143     14139     14137     14140     14141
     14139     14137     14140     14142     14139     14137     14140     14143
     14140     14143     14146     14147     14140     14143     14146     14148
     14140     14143     14146     14149     14141     14140     14143     14144
     14141     14140     14143     14145     14141     14140     14143     14146
     14142     14140     14143     14144     14142     14140     14143     14145
     14142     14140     14143     14146     14143     14146     14149     14150
     14143     14146     14149     14151     14143     14146     14149     14152
     14144     14143     14146     14147     14144     14143     14146     14148
     14144     14143     14146     14149     14145     14143     14146     14147
     14145     14143     14146     14148     14145     14143     14146     14149
     14146     14149     14152     14153     14146     14149     14152     14154
     14146     14149     14152     14155     14147     14146     14149     14150
     14147     14146     14149     14151     14147     14146     14149     14152
     14148     14146     14149     14150     14148     14146     14149     14151
     14148     14146     14149     14152     14149     14152     14155     14156
     14149     14152     14155     14157     14149     14152     14155     14158
     14150     14149     14152     14153     14150     14149     14152     14154
     14150     14149     14152     14155     14151     14149     14152     14153
     14151     14149     14152     14154     14151     14149     14152     14155
     14152     14155     14158     14159     14152     14155     14158     14160
     14152     14155     14158     14161     14153     14152     14155     14156
     14153     14152     14155     14157     14153     14152     14155     14158
     14154     14152     14155     14156     14154     14152     14155     14157
     14154     14152     14155     14158     14155     14158     14161     14162
     14155     14158     14161     14163     14155     14158     14161     14164
     14156     14155     14158     14159     14156     14155     14158     14160
     14156     14155     14158     14161     14157     14155     14158     14159
     14157     14155     14158     14160     14157     14155     14158     14161
     14158     14161     14164     14165     14158     14161     14164     14166
     14158     14161     14164     14167     14159     14158     14161     14162
     14159     14158     14161     14163     14159     14158     14161     14164
     14160     14158     14161     14162     14160     14158     14161     14163
     14160     14158     14161     14164     14162     14161     14164     14165
     14162     14161     14164     14166     14162     14161     14164     14167
     14163     14161     14164     14165     14163     14161     14164     14166
     14163     14161     14164     14167     14168     14172     14175     14176
     14168     14172     14175     14177     14168     14172     14175     14182
     14169     14168     14172     14173     14169     14168     14172     14174
     14169     14168     14172     14175     14170     14168     14172     14173
     14170     14168     14172     14174     14170     14168     14172     14175
     14171     14168     14172     14173     14171     14168     14172     14174
     14171     14168     14172     14175     14172     14175     14182     14178
     14173     14172     14175     14176     14173     14172     14175     14177
     14173     14172     14175     14182     14174     14172     14175     14176
     14174     14172     14175     14177     14174     14172     14175     14182
     14175     14182     14178     14179     14175     14182     14178     14180
     14175     14182     14178     14181     14176     14175     14182     14178
     14177     14175     14182     14178     14178     14181     14183     14184
     14178     14181     14183     14185     14178     14181     14183     14186
     14179     14178     14181     14183     14180     14178     14181     14183
     14181     14183     14186     14187     14181     14183     14186     14188
     14181     14183     14186     14194     14182     14178     14181     14183
     14183     14186     14188     14189     14183     14186     14194     14195
     14183     14186     14194     14196     14183     14186     14194     14197
     14184     14183     14186     14187     14184     14183     14186     14188
     14184     14183     14186     14194     14185     14183     14186     14187
     14185     14183     14186     14188     14185     14183     14186     14194
     14186     14188     14189     14190     14186     14188     14189     14191
     14186     14194     14197     14198     14187     14186     14188     14189
     14187     14186     14194     14195     14187     14186     14194     14196
     14187     14186     14194     14197     14188     14186     14194     14195
     14188     14186     14194     14196     14188     14186     14194     14197
     14188     14189     14191     14192     14188     14189     14191     14193
     14188     14189     14191     14203     14189     14188     14186     14194
     14189     14191     14203     14204     14189     14191     14203     14205
     14189     14191     14203     14206     14190     14189     14191     14192
     14190     14189     14191     14193     14190     14189     14191     14203
     14191     14203     14206     14207     14191     14203     14206     14208
     14191     14203     14206     14209     14192     14191     14203     14204
     14192     14191     14203     14205     14192     14191     14203     14206
     14193     14191     14203     14204     14193     14191     14203     14205
     14193     14191     14203     14206     14194     14197     14198     14199
     14194     14197     14198     14200     14195     14194     14197     14198
     14196     14194     14197     14198     14197     14198     14200     14201
     14197     14198     14200     14202     14197     14198     14200     14247
     14198     14200     14247     14248     14198     14200     14247     14249
     14198     14200     14247     14250     14199     14198     14200     14201
     14199     14198     14200     14202     14199     14198     14200     14247
     14200     14247     14250     14251     14200     14247     14250     14252
     14200     14247     14250     14253     14201     14200     14247     14248
     14201     14200     14247     14249     14201     14200     14247     14250
     14202     14200     14247     14248     14202     14200     14247     14249
     14202     14200     14247     14250     14203     14206     14209     14210
     14203     14206     14209     14211     14203     14206     14209     14212
     14204     14203     14206     14207     14204     14203     14206     14208
     14204     14203     14206     14209     14205     14203     14206     14207
     14205     14203     14206     14208     14205     14203     14206     14209
     14206     14209     14212     14213     14206     14209     14212     14214
     14206     14209     14212     14215     14207     14206     14209     14210
     14207     14206     14209     14211     14207     14206     14209     14212
     14208     14206     14209     14210     14208     14206     14209     14211
     14208     14206     14209     14212     14209     14212     14215     14216
     14209     14212     14215     14217     14209     14212     14215     14218
     14210     14209     14212     14213     14210     14209     14212     14214
     14210     14209     14212     14215     14211     14209     14212     14213
     14211     14209     14212     14214     14211     14209     14212     14215
     14212     14215     14218     14219     14212     14215     14218     14220
     14212     14215     14218     14221     14213     14212     14215     14216
     14213     14212     14215     14217     14213     14212     14215     14218
     14214     14212     14215     14216     14214     14212     14215     14217
     14214     14212     14215     14218     14215     14218     14221     14222
     14215     14218     14221     14223     14215     14218     14221     14226
     14216     14215     14218     14219     14216     14215     14218     14220
     14216     14215     14218     14221     14217     14215     14218     14219
     14217     14215     14218     14220     14217     14215     14218     14221
     14218     14221     14223     14224     14218     14221     14223     14225
     14218     14221     14223     14226     14218     14221     14226     14223
     14218     14221     14226     14227     14218     14221     14226     14228
     14219     14218     14221     14222     14219     14218     14221     14223
     14219     14218     14221     14226     14220     14218     14221     14222
     14220     14218     14221     14223     14220     14218     14221     14226
     14221     14223     14226     14227     14221     14223     14226     14228
     14221     14226     14223     14224     14221     14226     14223     14225
     14221     14226     14228     14229     14221     14226     14228     14230
     14221     14226     14228     14231     14222     14221     14223     14224
     14222     14221     14223     14225     14222     14221     14223     14226
     14222     14221     14226     14223     14222     14221     14226     14227
     14222     14221     14226     14228     14223     14221     14226     14227
     14223     14221     14226     14228     14223     14226     14228     14229
     14223     14226     14228     14230     14223     14226     14228     14231
     14224     14223     14221     14226     14224     14223     14226     14227
     14224     14223     14226     14228     14225     14223     14221     14226
     14225     14223     14226     14227     14225     14223     14226     14228
     14226     14228     14231     14232     14226     14228     14231     14233
     14226     14228     14231     14234     14227     14226     14228     14229
     14227     14226     14228     14230     14227     14226     14228     14231
     14228     14231     14234     14235     14228     14231     14234     14236
     14228     14231     14234     14237     14229     14228     14231     14232
     14229     14228     14231     14233     14229     14228     14231     14234
     14230     14228     14231     14232     14230     14228     14231     14233
     14230     14228     14231     14234     14231     14234     14237     14238
     14231     14234     14237     14239     14231     14234     14237     14240
     14232     14231     14234     14235     14232     14231     14234     14236
     14232     14231     14234     14237     14233     14231     14234     14235
     14233     14231     14234     14236     14233     14231     14234     14237
     14234     14237     14240     14241     14234     14237     14240     14242
     14234     14237     14240     14243     14235     14234     14237     14238
     14235     14234     14237     14239     14235     14234     14237     14240
     14236     14234     14237     14238     14236     14234     14237     14239
     14236     14234     14237     14240     14237     14240     14243     14244
     14237     14240     14243     14245     14237     14240     14243     14246
     14238     14237     14240     14241     14238     14237     14240     14242
     14238     14237     14240     14243     14239     14237     14240     14241
     14239     14237     14240     14242     14239     14237     14240     14243
     14241     14240     14243     14244     14241     14240     14243     14245
     14241     14240     14243     14246     14242     14240     14243     14244
     14242     14240     14243     14245     14242     14240     14243     14246
     14247     14250     14253     14254     14247     14250     14253     14255
     14247     14250     14253     14256     14248     14247     14250     14251
     14248     14247     14250     14252     14248     14247     14250     14253
     14249     14247     14250     14251     14249     14247     14250     14252
     14249     14247     14250     14253     14250     14253     14256     14257
     14250     14253     14256     14258     14250     14253     14256     14259
     14251     14250     14253     14254     14251     14250     14253     14255
     14251     14250     14253     14256     14252     14250     14253     14254
     14252     14250     14253     14255     14252     14250     14253     14256
     14253     14256     14259     14260     14253     14256     14259     14261
     14253     14256     14259     14262     14254     14253     14256     14257
     14254     14253     14256     14258     14254     14253     14256     14259
     14255     14253     14256     14257     14255     14253     14256     14258
     14255     14253     14256     14259     14256     14259     14262     14263
     14256     14259     14262     14264     14256     14259     14262     14265
     14257     14256     14259     14260     14257     14256     14259     14261
     14257     14256     14259     14262     14258     14256     14259     14260
     14258     14256     14259     14261     14258     14256     14259     14262
     14259     14262     14265     14266     14259     14262     14265     14267
     14259     14262     14265     14268     14260     14259     14262     14263
     14260     14259     14262     14264     14260     14259     14262     14265
     14261     14259     14262     14263     14261     14259     14262     14264
     14261     14259     14262     14265     14262     14265     14268     14269
     14262     14265     14268     14270     14262     14265     14268     14271
     14263     14262     14265     14266     14263     14262     14265     14267
     14263     14262     14265     14268     14264     14262     14265     14266
     14264     14262     14265     14267     14264     14262     14265     14268
     14265     14268     14271     14272     14265     14268     14271     14273
     14265     14268     14271     14274     14266     14265     14268     14269
     14266     14265     14268     14270     14266     14265     14268     14271
     14267     14265     14268     14269     14267     14265     14268     14270
     14267     14265     14268     14271     14268     14271     14274     14275
     14268     14271     14274     14276     14268     14271     14274     14277
     14269     14268     14271     14272     14269     14268     14271     14273
     14269     14268     14271     14274     14270     14268     14271     14272
     14270     14268     14271     14273     14270     14268     14271     14274
     14271     14274     14277     14278     14271     14274     14277     14279
     14271     14274     14277     14280     14272     14271     14274     14275
     14272     14271     14274     14276     14272     14271     14274     14277
     14273     14271     14274     14275     14273     14271     14274     14276
     14273     14271     14274     14277     14274     14277     14280     14281
     14274     14277     14280     14282     14274     14277     14280     14283
     14275     14274     14277     14278     14275     14274     14277     14279
     14275     14274     14277     14280     14276     14274     14277     14278
     14276     14274     14277     14279     14276     14274     14277     14280
     14277     14280     14283     14284     14277     14280     14283     14285
     14277     14280     14283     14286     14278     14277     14280     14281
     14278     14277     14280     14282     14278     14277     14280     14283
     14279     14277     14280     14281     14279     14277     14280     14282
     14279     14277     14280     14283     14280     14283     14286     14287
     14280     14283     14286     14288     14280     14283     14286     14289
     14281     14280     14283     14284     14281     14280     14283     14285
     14281     14280     14283     14286     14282     14280     14283     14284
     14282     14280     14283     14285     14282     14280     14283     14286
     14284     14283     14286     14287     14284     14283     14286     14288
     14284     14283     14286     14289     14285     14283     14286     14287
     14285     14283     14286     14288     14285     14283     14286     14289
     14290     14294     14297     14298     14290     14294     14297     14299
     14290     14294     14297     14304     14291     14290     14294     14295
     14291     14290     14294     14296     14291     14290     14294     14297
     14292     14290     14294     14295     14292     14290     14294     14296
     14292     14290     14294     14297     14293     14290     14294     14295
     14293     14290     14294     14296     14293     14290     14294     14297
     14294     14297     14304     14300     14295     14294     14297     14298
     14295     14294     14297     14299     14295     14294     14297     14304
     14296     14294     14297     14298     14296     14294     14297     14299
     14296     14294     14297     14304     14297     14304     14300     14301
     14297     14304     14300     14302     14297     14304     14300     14303
     14298     14297     14304     14300     14299     14297     14304     14300
     14300     14303     14305     14306     14300     14303     14305     14307
     14300     14303     14305     14308     14301     14300     14303     14305
     14302     14300     14303     14305     14303     14305     14308     14309
     14303     14305     14308     14310     14303     14305     14308     14316
     14304     14300     14303     14305     14305     14308     14310     14311
     14305     14308     14316     14317     14305     14308     14316     14318
     14305     14308     14316     14319     14306     14305     14308     14309
     14306     14305     14308     14310     14306     14305     14308     14316
     14307     14305     14308     14309     14307     14305     14308     14310
     14307     14305     14308     14316     14308     14310     14311     14312
     14308     14310     14311     14313     14308     14316     14319     14320
     14309     14308     14310     14311     14309     14308     14316     14317
     14309     14308     14316     14318     14309     14308     14316     14319
     14310     14308     14316     14317     14310     14308     14316     14318
     14310     14308     14316     14319     14310     14311     14313     14314
     14310     14311     14313     14315     14310     14311     14313     14325
     14311     14310     14308     14316     14311     14313     14325     14326
     14311     14313     14325     14327     14311     14313     14325     14328
     14312     14311     14313     14314     14312     14311     14313     14315
     14312     14311     14313     14325     14313     14325     14328     14329
     14313     14325     14328     14330     14313     14325     14328     14331
     14314     14313     14325     14326     14314     14313     14325     14327
     14314     14313     14325     14328     14315     14313     14325     14326
     14315     14313     14325     14327     14315     14313     14325     14328
     14316     14319     14320     14321     14316     14319     14320     14322
     14317     14316     14319     14320     14318     14316     14319     14320
     14319     14320     14322     14323     14319     14320     14322     14324
     14319     14320     14322     14372     14320     14322     14372     14373
     14320     14322     14372     14374     14320     14322     14372     14375
     14321     14320     14322     14323     14321     14320     14322     14324
     14321     14320     14322     14372     14322     14372     14375     14376
     14322     14372     14375     14377     14322     14372     14375     14378
     14323     14322     14372     14373     14323     14322     14372     14374
     14323     14322     14372     14375     14324     14322     14372     14373
     14324     14322     14372     14374     14324     14322     14372     14375
     14325     14328     14331     14332     14325     14328     14331     14333
     14325     14328     14331     14334     14326     14325     14328     14329
     14326     14325     14328     14330     14326     14325     14328     14331
     14327     14325     14328     14329     14327     14325     14328     14330
     14327     14325     14328     14331     14328     14331     14334     14335
     14328     14331     14334     14336     14328     14331     14334     14337
     14329     14328     14331     14332     14329     14328     14331     14333
     14329     14328     14331     14334     14330     14328     14331     14332
     14330     14328     14331     14333     14330     14328     14331     14334
     14331     14334     14337     14338     14331     14334     14337     14339
     14331     14334     14337     14340     14332     14331     14334     14335
     14332     14331     14334     14336     14332     14331     14334     14337
     14333     14331     14334     14335     14333     14331     14334     14336
     14333     14331     14334     14337     14334     14337     14340     14341
     14334     14337     14340     14342     14334     14337     14340     14343
     14335     14334     14337     14338     14335     14334     14337     14339
     14335     14334     14337     14340     14336     14334     14337     14338
     14336     14334     14337     14339     14336     14334     14337     14340
     14337     14340     14343     14344     14337     14340     14343     14345
     14338     14337     14340     14341     14338     14337     14340     14342
     14338     14337     14340     14343     14339     14337     14340     14341
     14339     14337     14340     14342     14339     14337     14340     14343
     14340     14343     14345     14346     14340     14343     14345     14347
     14341     14340     14343     14344     14341     14340     14343     14345
     14342     14340     14343     14344     14342     14340     14343     14345
     14343     14345     14347     14348     14343     14345     14347     14349
     14343     14345     14347     14350     14344     14343     14345     14346
     14344     14343     14345     14347     14345     14347     14350     14351
     14345     14347     14350     14352     14345     14347     14350     14353
     14346     14345     14347     14348     14346     14345     14347     14349
     14346     14345     14347     14350     14347     14350     14353     14354
     14347     14350     14353     14355     14347     14350     14353     14356
     14348     14347     14350     14351     14348     14347     14350     14352
     14348     14347     14350     14353     14349     14347     14350     14351
     14349     14347     14350     14352     14349     14347     14350     14353
     14350     14353     14356     14357     14350     14353     14356     14358
     14350     14353     14356     14359     14351     14350     14353     14354
     14351     14350     14353     14355     14351     14350     14353     14356
     14352     14350     14353     14354     14352     14350     14353     14355
     14352     14350     14353     14356     14353     14356     14359     14360
     14353     14356     14359     14361     14353     14356     14359     14362
     14354     14353     14356     14357     14354     14353     14356     14358
     14354     14353     14356     14359     14355     14353     14356     14357
     14355     14353     14356     14358     14355     14353     14356     14359
     14356     14359     14362     14363     14356     14359     14362     14364
     14356     14359     14362     14365     14357     14356     14359     14360
     14357     14356     14359     14361     14357     14356     14359     14362
     14358     14356     14359     14360     14358     14356     14359     14361
     14358     14356     14359     14362     14359     14362     14365     14366
     14359     14362     14365     14367     14359     14362     14365     14368
     14360     14359     14362     14363     14360     14359     14362     14364
     14360     14359     14362     14365     14361     14359     14362     14363
     14361     14359     14362     14364     14361     14359     14362     14365
     14362     14365     14368     14369     14362     14365     14368     14370
     14362     14365     14368     14371     14363     14362     14365     14366
     14363     14362     14365     14367     14363     14362     14365     14368
     14364     14362     14365     14366     14364     14362     14365     14367
     14364     14362     14365     14368     14366     14365     14368     14369
     14366     14365     14368     14370     14366     14365     14368     14371
     14367     14365     14368     14369     14367     14365     14368     14370
     14367     14365     14368     14371     14372     14375     14378     14379
     14372     14375     14378     14380     14372     14375     14378     14381
     14373     14372     14375     14376     14373     14372     14375     14377
     14373     14372     14375     14378     14374     14372     14375     14376
     14374     14372     14375     14377     14374     14372     14375     14378
     14375     14378     14381     14382     14375     14378     14381     14383
     14375     14378     14381     14384     14376     14375     14378     14379
     14376     14375     14378     14380     14376     14375     14378     14381
     14377     14375     14378     14379     14377     14375     14378     14380
     14377     14375     14378     14381     14378     14381     14384     14385
     14378     14381     14384     14386     14378     14381     14384     14387
     14379     14378     14381     14382     14379     14378     14381     14383
     14379     14378     14381     14384     14380     14378     14381     14382
     14380     14378     14381     14383     14380     14378     14381     14384
     14381     14384     14387     14388     14381     14384     14387     14389
     14381     14384     14387     14390     14382     14381     14384     14385
     14382     14381     14384     14386     14382     14381     14384     14387
     14383     14381     14384     14385     14383     14381     14384     14386
     14383     14381     14384     14387     14384     14387     14390     14391
     14384     14387     14390     14392     14384     14387     14390     14393
     14385     14384     14387     14388     14385     14384     14387     14389
     14385     14384     14387     14390     14386     14384     14387     14388
     14386     14384     14387     14389     14386     14384     14387     14390
     14387     14390     14393     14394     14387     14390     14393     14395
     14387     14390     14393     14396     14388     14387     14390     14391
     14388     14387     14390     14392     14388     14387     14390     14393
     14389     14387     14390     14391     14389     14387     14390     14392
     14389     14387     14390     14393     14390     14393     14396     14397
     14390     14393     14396     14398     14390     14393     14396     14399
     14391     14390     14393     14394     14391     14390     14393     14395
     14391     14390     14393     14396     14392     14390     14393     14394
     14392     14390     14393     14395     14392     14390     14393     14396
     14393     14396     14399     14400     14393     14396     14399     14401
     14393     14396     14399     14402     14394     14393     14396     14397
     14394     14393     14396     14398     14394     14393     14396     14399
     14395     14393     14396     14397     14395     14393     14396     14398
     14395     14393     14396     14399     14396     14399     14402     14403
     14396     14399     14402     14404     14396     14399     14402     14405
     14397     14396     14399     14400     14397     14396     14399     14401
     14397     14396     14399     14402     14398     14396     14399     14400
     14398     14396     14399     14401     14398     14396     14399     14402
     14399     14402     14405     14406     14399     14402     14405     14407
     14399     14402     14405     14408     14400     14399     14402     14403
     14400     14399     14402     14404     14400     14399     14402     14405
     14401     14399     14402     14403     14401     14399     14402     14404
     14401     14399     14402     14405     14402     14405     14408     14409
     14402     14405     14408     14410     14402     14405     14408     14411
     14403     14402     14405     14406     14403     14402     14405     14407
     14403     14402     14405     14408     14404     14402     14405     14406
     14404     14402     14405     14407     14404     14402     14405     14408
     14405     14408     14411     14412     14405     14408     14411     14413
     14405     14408     14411     14414     14406     14405     14408     14409
     14406     14405     14408     14410     14406     14405     14408     14411
     14407     14405     14408     14409     14407     14405     14408     14410
     14407     14405     14408     14411     14409     14408     14411     14412
     14409     14408     14411     14413     14409     14408     14411     14414
     14410     14408     14411     14412     14410     14408     14411     14413
     14410     14408     14411     14414     14415     14420     14422     14423
     14415     14420     14424     14425     14415     14420     14424     14426
     14415     14420     14424     14431     14416     14415     14418     14419
     14416     14415     14420     14421     14416     14415     14420     14422
     14416     14415     14420     14424     14417     14415     14418     14419
     14417     14415     14420     14421     14417     14415     14420     14422
     14417     14415     14420     14424     14418     14415     14420     14421
     14418     14415     14420     14422     14418     14415     14420     14424
     14419     14418     14415     14420     14420     14424     14431     14427
     14421     14420     14422     14423     14421     14420     14424     14425
     14421     14420     14424     14426     14421     14420     14424     14431
     14422     14420     14424     14425     14422     14420     14424     14426
     14422     14420     14424     14431     14423     14422     14420     14424
     14424     14431     14427     14428     14424     14431     14427     14429
     14424     14431     14427     14430     14425     14424     14431     14427
     14426     14424     14431     14427     14427     14430     14432     14433
     14427     14430     14432     14434     14427     14430     14432     14435
     14428     14427     14430     14432     14429     14427     14430     14432
     14430     14432     14435     14436     14430     14432     14435     14437
     14430     14432     14435     14443     14431     14427     14430     14432
     14432     14435     14437     14438     14432     14435     14443     14444
     14432     14435     14443     14445     14432     14435     14443     14446
     14433     14432     14435     14436     14433     14432     14435     14437
     14433     14432     14435     14443     14434     14432     14435     14436
     14434     14432     14435     14437     14434     14432     14435     14443
     14435     14437     14438     14439     14435     14437     14438     14440
     14435     14443     14446     14447     14436     14435     14437     14438
     14436     14435     14443     14444     14436     14435     14443     14445
     14436     14435     14443     14446     14437     14435     14443     14444
     14437     14435     14443     14445     14437     14435     14443     14446
     14437     14438     14440     14441     14437     14438     14440     14442
     14437     14438     14440     14452     14438     14437     14435     14443
     14438     14440     14452     14453     14438     14440     14452     14454
     14438     14440     14452     14455     14439     14438     14440     14441
     14439     14438     14440     14442     14439     14438     14440     14452
     14440     14452     14455     14456     14440     14452     14455     14457
     14440     14452     14455     14458     14441     14440     14452     14453
     14441     14440     14452     14454     14441     14440     14452     14455
     14442     14440     14452     14453     14442     14440     14452     14454
     14442     14440     14452     14455     14443     14446     14447     14448
     14443     14446     14447     14449     14444     14443     14446     14447
     14445     14443     14446     14447     14446     14447     14449     14450
     14446     14447     14449     14451     14446     14447     14449     14496
     14447     14449     14496     14497     14447     14449     14496     14498
     14447     14449     14496     14499     14448     14447     14449     14450
     14448     14447     14449     14451     14448     14447     14449     14496
     14449     14496     14499     14500     14449     14496     14499     14501
     14449     14496     14499     14502     14450     14449     14496     14497
     14450     14449     14496     14498     14450     14449     14496     14499
     14451     14449     14496     14497     14451     14449     14496     14498
     14451     14449     14496     14499     14452     14455     14458     14459
     14452     14455     14458     14460     14452     14455     14458     14461
     14453     14452     14455     14456     14453     14452     14455     14457
     14453     14452     14455     14458     14454     14452     14455     14456
     14454     14452     14455     14457     14454     14452     14455     14458
     14455     14458     14461     14462     14455     14458     14461     14463
     14455     14458     14461     14464     14456     14455     14458     14459
     14456     14455     14458     14460     14456     14455     14458     14461
     14457     14455     14458     14459     14457     14455     14458     14460
     14457     14455     14458     14461     14458     14461     14464     14465
     14458     14461     14464     14466     14458     14461     14464     14467
     14459     14458     14461     14462     14459     14458     14461     14463
     14459     14458     14461     14464     14460     14458     14461     14462
     14460     14458     14461     14463     14460     14458     14461     14464
     14461     14464     14467     14468     14461     14464     14467     14469
     14461     14464     14467     14470     14462     14461     14464     14465
     14462     14461     14464     14466     14462     14461     14464     14467
     14463     14461     14464     14465     14463     14461     14464     14466
     14463     14461     14464     14467     14464     14467     14470     14471
     14464     14467     14470     14472     14464     14467     14470     14475
     14465     14464     14467     14468     14465     14464     14467     14469
     14465     14464     14467     14470     14466     14464     14467     14468
     14466     14464     14467     14469     14466     14464     14467     14470
     14467     14470     14472     14473     14467     14470     14472     14474
     14467     14470     14472     14475     14467     14470     14475     14472
     14467     14470     14475     14476     14467     14470     14475     14477
     14468     14467     14470     14471     14468     14467     14470     14472
     14468     14467     14470     14475     14469     14467     14470     14471
     14469     14467     14470     14472     14469     14467     14470     14475
     14470     14472     14475     14476     14470     14472     14475     14477
     14470     14475     14472     14473     14470     14475     14472     14474
     14470     14475     14477     14478     14470     14475     14477     14479
     14470     14475     14477     14480     14471     14470     14472     14473
     14471     14470     14472     14474     14471     14470     14472     14475
     14471     14470     14475     14472     14471     14470     14475     14476
     14471     14470     14475     14477     14472     14470     14475     14476
     14472     14470     14475     14477     14472     14475     14477     14478
     14472     14475     14477     14479     14472     14475     14477     14480
     14473     14472     14470     14475     14473     14472     14475     14476
     14473     14472     14475     14477     14474     14472     14470     14475
     14474     14472     14475     14476     14474     14472     14475     14477
     14475     14477     14480     14481     14475     14477     14480     14482
     14475     14477     14480     14483     14476     14475     14477     14478
     14476     14475     14477     14479     14476     14475     14477     14480
     14477     14480     14483     14484     14477     14480     14483     14485
     14477     14480     14483     14486     14478     14477     14480     14481
     14478     14477     14480     14482     14478     14477     14480     14483
     14479     14477     14480     14481     14479     14477     14480     14482
     14479     14477     14480     14483     14480     14483     14486     14487
     14480     14483     14486     14488     14480     14483     14486     14489
     14481     14480     14483     14484     14481     14480     14483     14485
     14481     14480     14483     14486     14482     14480     14483     14484
     14482     14480     14483     14485     14482     14480     14483     14486
     14483     14486     14489     14490     14483     14486     14489     14491
     14483     14486     14489     14492     14484     14483     14486     14487
     14484     14483     14486     14488     14484     14483     14486     14489
     14485     14483     14486     14487     14485     14483     14486     14488
     14485     14483     14486     14489     14486     14489     14492     14493
     14486     14489     14492     14494     14486     14489     14492     14495
     14487     14486     14489     14490     14487     14486     14489     14491
     14487     14486     14489     14492     14488     14486     14489     14490
     14488     14486     14489     14491     14488     14486     14489     14492
     14490     14489     14492     14493     14490     14489     14492     14494
     14490     14489     14492     14495     14491     14489     14492     14493
     14491     14489     14492     14494     14491     14489     14492     14495
     14496     14499     14502     14503     14496     14499     14502     14504
     14496     14499     14502     14505     14497     14496     14499     14500
     14497     14496     14499     14501     14497     14496     14499     14502
     14498     14496     14499     14500     14498     14496     14499     14501
     14498     14496     14499     14502     14499     14502     14505     14506
     14499     14502     14505     14507     14499     14502     14505     14508
     14500     14499     14502     14503     14500     14499     14502     14504
     14500     14499     14502     14505     14501     14499     14502     14503
     14501     14499     14502     14504     14501     14499     14502     14505
     14502     14505     14508     14509     14502     14505     14508     14510
     14502     14505     14508     14511     14503     14502     14505     14506
     14503     14502     14505     14507     14503     14502     14505     14508
     14504     14502     14505     14506     14504     14502     14505     14507
     14504     14502     14505     14508     14505     14508     14511     14512
     14505     14508     14511     14513     14505     14508     14511     14514
     14506     14505     14508     14509     14506     14505     14508     14510
     14506     14505     14508     14511     14507     14505     14508     14509
     14507     14505     14508     14510     14507     14505     14508     14511
     14508     14511     14514     14515     14508     14511     14514     14516
     14508     14511     14514     14517     14509     14508     14511     14512
     14509     14508     14511     14513     14509     14508     14511     14514
     14510     14508     14511     14512     14510     14508     14511     14513
     14510     14508     14511     14514     14511     14514     14517     14518
     14511     14514     14517     14519     14511     14514     14517     14520
     14512     14511     14514     14515     14512     14511     14514     14516
     14512     14511     14514     14517     14513     14511     14514     14515
     14513     14511     14514     14516     14513     14511     14514     14517
     14514     14517     14520     14521     14514     14517     14520     14522
     14514     14517     14520     14523     14515     14514     14517     14518
     14515     14514     14517     14519     14515     14514     14517     14520
     14516     14514     14517     14518     14516     14514     14517     14519
     14516     14514     14517     14520     14517     14520     14523     14524
     14517     14520     14523     14525     14517     14520     14523     14526
     14518     14517     14520     14521     14518     14517     14520     14522
     14518     14517     14520     14523     14519     14517     14520     14521
     14519     14517     14520     14522     14519     14517     14520     14523
     14520     14523     14526     14527     14520     14523     14526     14528
     14520     14523     14526     14529     14521     14520     14523     14524
     14521     14520     14523     14525     14521     14520     14523     14526
     14522     14520     14523     14524     14522     14520     14523     14525
     14522     14520     14523     14526     14523     14526     14529     14530
     14523     14526     14529     14531     14523     14526     14529     14532
     14524     14523     14526     14527     14524     14523     14526     14528
     14524     14523     14526     14529     14525     14523     14526     14527
     14525     14523     14526     14528     14525     14523     14526     14529
     14526     14529     14532     14533     14526     14529     14532     14534
     14526     14529     14532     14535     14527     14526     14529     14530
     14527     14526     14529     14531     14527     14526     14529     14532
     14528     14526     14529     14530     14528     14526     14529     14531
     14528     14526     14529     14532     14529     14532     14535     14536
     14529     14532     14535     14537     14529     14532     14535     14538
     14530     14529     14532     14533     14530     14529     14532     14534
     14530     14529     14532     14535     14531     14529     14532     14533
     14531     14529     14532     14534     14531     14529     14532     14535
     14533     14532     14535     14536     14533     14532     14535     14537
     14533     14532     14535     14538     14534     14532     14535     14536
     14534     14532     14535     14537     14534     14532     14535     14538
     14539     14543     14546     14547     14539     14543     14546     14548
     14539     14543     14546     14553     14540     14539     14543     14544
     14540     14539     14543     14545     14540     14539     14543     14546
     14541     14539     14543     14544     14541     14539     14543     14545
     14541     14539     14543     14546     14542     14539     14543     14544
     14542     14539     14543     14545     14542     14539     14543     14546
     14543     14546     14553     14549     14544     14543     14546     14547
     14544     14543     14546     14548     14544     14543     14546     14553
     14545     14543     14546     14547     14545     14543     14546     14548
     14545     14543     14546     14553     14546     14553     14549     14550
     14546     14553     14549     14551     14546     14553     14549     14552
     14547     14546     14553     14549     14548     14546     14553     14549
     14549     14552     14554     14555     14549     14552     14554     14556
     14549     14552     14554     14557     14550     14549     14552     14554
     14551     14549     14552     14554     14552     14554     14557     14558
     14552     14554     14557     14559     14552     14554     14557     14565
     14553     14549     14552     14554     14554     14557     14559     14560
     14554     14557     14565     14566     14554     14557     14565     14567
     14554     14557     14565     14568     14555     14554     14557     14558
     14555     14554     14557     14559     14555     14554     14557     14565
     14556     14554     14557     14558     14556     14554     14557     14559
     14556     14554     14557     14565     14557     14559     14560     14561
     14557     14559     14560     14562     14557     14565     14568     14569
     14558     14557     14559     14560     14558     14557     14565     14566
     14558     14557     14565     14567     14558     14557     14565     14568
     14559     14557     14565     14566     14559     14557     14565     14567
     14559     14557     14565     14568     14559     14560     14562     14563
     14559     14560     14562     14564     14559     14560     14562     14574
     14560     14559     14557     14565     14560     14562     14574     14575
     14560     14562     14574     14576     14560     14562     14574     14577
     14561     14560     14562     14563     14561     14560     14562     14564
     14561     14560     14562     14574     14562     14574     14577     14578
     14562     14574     14577     14579     14562     14574     14577     14580
     14563     14562     14574     14575     14563     14562     14574     14576
     14563     14562     14574     14577     14564     14562     14574     14575
     14564     14562     14574     14576     14564     14562     14574     14577
     14565     14568     14569     14570     14565     14568     14569     14571
     14566     14565     14568     14569     14567     14565     14568     14569
     14568     14569     14571     14572     14568     14569     14571     14573
     14568     14569     14571     14618     14569     14571     14618     14619
     14569     14571     14618     14620     14569     14571     14618     14621
     14570     14569     14571     14572     14570     14569     14571     14573
     14570     14569     14571     14618     14571     14618     14621     14622
     14571     14618     14621     14623     14571     14618     14621     14624
     14572     14571     14618     14619     14572     14571     14618     14620
     14572     14571     14618     14621     14573     14571     14618     14619
     14573     14571     14618     14620     14573     14571     14618     14621
     14574     14577     14580     14581     14574     14577     14580     14582
     14574     14577     14580     14583     14575     14574     14577     14578
     14575     14574     14577     14579     14575     14574     14577     14580
     14576     14574     14577     14578     14576     14574     14577     14579
     14576     14574     14577     14580     14577     14580     14583     14584
     14577     14580     14583     14585     14577     14580     14583     14586
     14578     14577     14580     14581     14578     14577     14580     14582
     14578     14577     14580     14583     14579     14577     14580     14581
     14579     14577     14580     14582     14579     14577     14580     14583
     14580     14583     14586     14587     14580     14583     14586     14588
     14580     14583     14586     14589     14581     14580     14583     14584
     14581     14580     14583     14585     14581     14580     14583     14586
     14582     14580     14583     14584     14582     14580     14583     14585
     14582     14580     14583     14586     14583     14586     14589     14590
     14583     14586     14589     14591     14583     14586     14589     14592
     14584     14583     14586     14587     14584     14583     14586     14588
     14584     14583     14586     14589     14585     14583     14586     14587
     14585     14583     14586     14588     14585     14583     14586     14589
     14586     14589     14592     14593     14586     14589     14592     14594
     14586     14589     14592     14597     14587     14586     14589     14590
     14587     14586     14589     14591     14587     14586     14589     14592
     14588     14586     14589     14590     14588     14586     14589     14591
     14588     14586     14589     14592     14589     14592     14594     14595
     14589     14592     14594     14596     14589     14592     14594     14597
     14589     14592     14597     14594     14589     14592     14597     14598
     14589     14592     14597     14599     14590     14589     14592     14593
     14590     14589     14592     14594     14590     14589     14592     14597
     14591     14589     14592     14593     14591     14589     14592     14594
     14591     14589     14592     14597     14592     14594     14597     14598
     14592     14594     14597     14599     14592     14597     14594     14595
     14592     14597     14594     14596     14592     14597     14599     14600
     14592     14597     14599     14601     14592     14597     14599     14602
     14593     14592     14594     14595     14593     14592     14594     14596
     14593     14592     14594     14597     14593     14592     14597     14594
     14593     14592     14597     14598     14593     14592     14597     14599
     14594     14592     14597     14598     14594     14592     14597     14599
     14594     14597     14599     14600     14594     14597     14599     14601
     14594     14597     14599     14602     14595     14594     14592     14597
     14595     14594     14597     14598     14595     14594     14597     14599
     14596     14594     14592     14597     14596     14594     14597     14598
     14596     14594     14597     14599     14597     14599     14602     14603
     14597     14599     14602     14604     14597     14599     14602     14605
     14598     14597     14599     14600     14598     14597     14599     14601
     14598     14597     14599     14602     14599     14602     14605     14606
     14599     14602     14605     14607     14599     14602     14605     14608
     14600     14599     14602     14603     14600     14599     14602     14604
     14600     14599     14602     14605     14601     14599     14602     14603
     14601     14599     14602     14604     14601     14599     14602     14605
     14602     14605     14608     14609     14602     14605     14608     14610
     14602     14605     14608     14611     14603     14602     14605     14606
     14603     14602     14605     14607     14603     14602     14605     14608
     14604     14602     14605     14606     14604     14602     14605     14607
     14604     14602     14605     14608     14605     14608     14611     14612
     14605     14608     14611     14613     14605     14608     14611     14614
     14606     14605     14608     14609     14606     14605     14608     14610
     14606     14605     14608     14611     14607     14605     14608     14609
     14607     14605     14608     14610     14607     14605     14608     14611
     14608     14611     14614     14615     14608     14611     14614     14616
     14608     14611     14614     14617     14609     14608     14611     14612
     14609     14608     14611     14613     14609     14608     14611     14614
     14610     14608     14611     14612     14610     14608     14611     14613
     14610     14608     14611     14614     14612     14611     14614     14615
     14612     14611     14614     14616     14612     14611     14614     14617
     14613     14611     14614     14615     14613     14611     14614     14616
     14613     14611     14614     14617     14618     14621     14624     14625
     14618     14621     14624     14626     14618     14621     14624     14627
     14619     14618     14621     14622     14619     14618     14621     14623
     14619     14618     14621     14624     14620     14618     14621     14622
     14620     14618     14621     14623     14620     14618     14621     14624
     14621     14624     14627     14628     14621     14624     14627     14629
     14621     14624     14627     14630     14622     14621     14624     14625
     14622     14621     14624     14626     14622     14621     14624     14627
     14623     14621     14624     14625     14623     14621     14624     14626
     14623     14621     14624     14627     14624     14627     14630     14631
     14624     14627     14630     14632     14624     14627     14630     14633
     14625     14624     14627     14628     14625     14624     14627     14629
     14625     14624     14627     14630     14626     14624     14627     14628
     14626     14624     14627     14629     14626     14624     14627     14630
     14627     14630     14633     14634     14627     14630     14633     14635
     14627     14630     14633     14636     14628     14627     14630     14631
     14628     14627     14630     14632     14628     14627     14630     14633
     14629     14627     14630     14631     14629     14627     14630     14632
     14629     14627     14630     14633     14630     14633     14636     14637
     14630     14633     14636     14638     14630     14633     14636     14639
     14631     14630     14633     14634     14631     14630     14633     14635
     14631     14630     14633     14636     14632     14630     14633     14634
     14632     14630     14633     14635     14632     14630     14633     14636
     14633     14636     14639     14640     14633     14636     14639     14641
     14633     14636     14639     14642     14634     14633     14636     14637
     14634     14633     14636     14638     14634     14633     14636     14639
     14635     14633     14636     14637     14635     14633     14636     14638
     14635     14633     14636     14639     14636     14639     14642     14643
     14636     14639     14642     14644     14636     14639     14642     14645
     14637     14636     14639     14640     14637     14636     14639     14641
     14637     14636     14639     14642     14638     14636     14639     14640
     14638     14636     14639     14641     14638     14636     14639     14642
     14639     14642     14645     14646     14639     14642     14645     14647
     14639     14642     14645     14648     14640     14639     14642     14643
     14640     14639     14642     14644     14640     14639     14642     14645
     14641     14639     14642     14643     14641     14639     14642     14644
     14641     14639     14642     14645     14642     14645     14648     14649
     14642     14645     14648     14650     14642     14645     14648     14651
     14643     14642     14645     14646     14643     14642     14645     14647
     14643     14642     14645     14648     14644     14642     14645     14646
     14644     14642     14645     14647     14644     14642     14645     14648
     14645     14648     14651     14652     14645     14648     14651     14653
     14645     14648     14651     14654     14646     14645     14648     14649
     14646     14645     14648     14650     14646     14645     14648     14651
     14647     14645     14648     14649     14647     14645     14648     14650
     14647     14645     14648     14651     14648     14651     14654     14655
     14648     14651     14654     14656     14648     14651     14654     14657
     14649     14648     14651     14652     14649     14648     14651     14653
     14649     14648     14651     14654     14650     14648     14651     14652
     14650     14648     14651     14653     14650     14648     14651     14654
     14651     14654     14657     14658     14651     14654     14657     14659
     14651     14654     14657     14660     14652     14651     14654     14655
     14652     14651     14654     14656     14652     14651     14654     14657
     14653     14651     14654     14655     14653     14651     14654     14656
     14653     14651     14654     14657     14655     14654     14657     14658
     14655     14654     14657     14659     14655     14654     14657     14660
     14656     14654     14657     14658     14656     14654     14657     14659
     14656     14654     14657     14660     14661     14665     14668     14669
     14661     14665     14668     14670     14661     14665     14668     14675
     14662     14661     14665     14666     14662     14661     14665     14667
     14662     14661     14665     14668     14663     14661     14665     14666
     14663     14661     14665     14667     14663     14661     14665     14668
     14664     14661     14665     14666     14664     14661     14665     14667
     14664     14661     14665     14668     14665     14668     14675     14671
     14666     14665     14668     14669     14666     14665     14668     14670
     14666     14665     14668     14675     14667     14665     14668     14669
     14667     14665     14668     14670     14667     14665     14668     14675
     14668     14675     14671     14672     14668     14675     14671     14673
     14668     14675     14671     14674     14669     14668     14675     14671
     14670     14668     14675     14671     14671     14674     14676     14677
     14671     14674     14676     14678     14671     14674     14676     14679
     14672     14671     14674     14676     14673     14671     14674     14676
     14674     14676     14679     14680     14674     14676     14679     14681
     14674     14676     14679     14687     14675     14671     14674     14676
     14676     14679     14681     14682     14676     14679     14687     14688
     14676     14679     14687     14689     14676     14679     14687     14690
     14677     14676     14679     14680     14677     14676     14679     14681
     14677     14676     14679     14687     14678     14676     14679     14680
     14678     14676     14679     14681     14678     14676     14679     14687
     14679     14681     14682     14683     14679     14681     14682     14684
     14679     14687     14690     14691     14680     14679     14681     14682
     14680     14679     14687     14688     14680     14679     14687     14689
     14680     14679     14687     14690     14681     14679     14687     14688
     14681     14679     14687     14689     14681     14679     14687     14690
     14681     14682     14684     14685     14681     14682     14684     14686
     14681     14682     14684     14696     14682     14681     14679     14687
     14682     14684     14696     14697     14682     14684     14696     14698
     14682     14684     14696     14699     14683     14682     14684     14685
     14683     14682     14684     14686     14683     14682     14684     14696
     14684     14696     14699     14700     14684     14696     14699     14701
     14684     14696     14699     14702     14685     14684     14696     14697
     14685     14684     14696     14698     14685     14684     14696     14699
     14686     14684     14696     14697     14686     14684     14696     14698
     14686     14684     14696     14699     14687     14690     14691     14692
     14687     14690     14691     14693     14688     14687     14690     14691
     14689     14687     14690     14691     14690     14691     14693     14694
     14690     14691     14693     14695     14690     14691     14693     14740
     14691     14693     14740     14741     14691     14693     14740     14742
     14691     14693     14740     14743     14692     14691     14693     14694
     14692     14691     14693     14695     14692     14691     14693     14740
     14693     14740     14743     14744     14693     14740     14743     14745
     14693     14740     14743     14746     14694     14693     14740     14741
     14694     14693     14740     14742     14694     14693     14740     14743
     14695     14693     14740     14741     14695     14693     14740     14742
     14695     14693     14740     14743     14696     14699     14702     14703
     14696     14699     14702     14704     14696     14699     14702     14705
     14697     14696     14699     14700     14697     14696     14699     14701
     14697     14696     14699     14702     14698     14696     14699     14700
     14698     14696     14699     14701     14698     14696     14699     14702
     14699     14702     14705     14706     14699     14702     14705     14707
     14699     14702     14705     14708     14700     14699     14702     14703
     14700     14699     14702     14704     14700     14699     14702     14705
     14701     14699     14702     14703     14701     14699     14702     14704
     14701     14699     14702     14705     14702     14705     14708     14709
     14702     14705     14708     14710     14702     14705     14708     14711
     14703     14702     14705     14706     14703     14702     14705     14707
     14703     14702     14705     14708     14704     14702     14705     14706
     14704     14702     14705     14707     14704     14702     14705     14708
     14705     14708     14711     14712     14705     14708     14711     14713
     14705     14708     14711     14714     14706     14705     14708     14709
     14706     14705     14708     14710     14706     14705     14708     14711
     14707     14705     14708     14709     14707     14705     14708     14710
     14707     14705     14708     14711     14708     14711     14714     14715
     14708     14711     14714     14716     14708     14711     14714     14719
     14709     14708     14711     14712     14709     14708     14711     14713
     14709     14708     14711     14714     14710     14708     14711     14712
     14710     14708     14711     14713     14710     14708     14711     14714
     14711     14714     14716     14717     14711     14714     14716     14718
     14711     14714     14716     14719     14711     14714     14719     14716
     14711     14714     14719     14720     14711     14714     14719     14721
     14712     14711     14714     14715     14712     14711     14714     14716
     14712     14711     14714     14719     14713     14711     14714     14715
     14713     14711     14714     14716     14713     14711     14714     14719
     14714     14716     14719     14720     14714     14716     14719     14721
     14714     14719     14716     14717     14714     14719     14716     14718
     14714     14719     14721     14722     14714     14719     14721     14723
     14714     14719     14721     14724     14715     14714     14716     14717
     14715     14714     14716     14718     14715     14714     14716     14719
     14715     14714     14719     14716     14715     14714     14719     14720
     14715     14714     14719     14721     14716     14714     14719     14720
     14716     14714     14719     14721     14716     14719     14721     14722
     14716     14719     14721     14723     14716     14719     14721     14724
     14717     14716     14714     14719     14717     14716     14719     14720
     14717     14716     14719     14721     14718     14716     14714     14719
     14718     14716     14719     14720     14718     14716     14719     14721
     14719     14721     14724     14725     14719     14721     14724     14726
     14719     14721     14724     14727     14720     14719     14721     14722
     14720     14719     14721     14723     14720     14719     14721     14724
     14721     14724     14727     14728     14721     14724     14727     14729
     14721     14724     14727     14730     14722     14721     14724     14725
     14722     14721     14724     14726     14722     14721     14724     14727
     14723     14721     14724     14725     14723     14721     14724     14726
     14723     14721     14724     14727     14724     14727     14730     14731
     14724     14727     14730     14732     14724     14727     14730     14733
     14725     14724     14727     14728     14725     14724     14727     14729
     14725     14724     14727     14730     14726     14724     14727     14728
     14726     14724     14727     14729     14726     14724     14727     14730
     14727     14730     14733     14734     14727     14730     14733     14735
     14727     14730     14733     14736     14728     14727     14730     14731
     14728     14727     14730     14732     14728     14727     14730     14733
     14729     14727     14730     14731     14729     14727     14730     14732
     14729     14727     14730     14733     14730     14733     14736     14737
     14730     14733     14736     14738     14730     14733     14736     14739
     14731     14730     14733     14734     14731     14730     14733     14735
     14731     14730     14733     14736     14732     14730     14733     14734
     14732     14730     14733     14735     14732     14730     14733     14736
     14734     14733     14736     14737     14734     14733     14736     14738
     14734     14733     14736     14739     14735     14733     14736     14737
     14735     14733     14736     14738     14735     14733     14736     14739
     14740     14743     14746     14747     14740     14743     14746     14748
     14740     14743     14746     14749     14741     14740     14743     14744
     14741     14740     14743     14745     14741     14740     14743     14746
     14742     14740     14743     14744     14742     14740     14743     14745
     14742     14740     14743     14746     14743     14746     14749     14750
     14743     14746     14749     14751     14743     14746     14749     14752
     14744     14743     14746     14747     14744     14743     14746     14748
     14744     14743     14746     14749     14745     14743     14746     14747
     14745     14743     14746     14748     14745     14743     14746     14749
     14746     14749     14752     14753     14746     14749     14752     14754
     14746     14749     14752     14755     14747     14746     14749     14750
     14747     14746     14749     14751     14747     14746     14749     14752
     14748     14746     14749     14750     14748     14746     14749     14751
     14748     14746     14749     14752     14749     14752     14755     14756
     14749     14752     14755     14757     14749     14752     14755     14758
     14750     14749     14752     14753     14750     14749     14752     14754
     14750     14749     14752     14755     14751     14749     14752     14753
     14751     14749     14752     14754     14751     14749     14752     14755
     14752     14755     14758     14759     14752     14755     14758     14760
     14752     14755     14758     14761     14753     14752     14755     14756
     14753     14752     14755     14757     14753     14752     14755     14758
     14754     14752     14755     14756     14754     14752     14755     14757
     14754     14752     14755     14758     14755     14758     14761     14762
     14755     14758     14761     14763     14755     14758     14761     14764
     14756     14755     14758     14759     14756     14755     14758     14760
     14756     14755     14758     14761     14757     14755     14758     14759
     14757     14755     14758     14760     14757     14755     14758     14761
     14758     14761     14764     14765     14758     14761     14764     14766
     14758     14761     14764     14767     14759     14758     14761     14762
     14759     14758     14761     14763     14759     14758     14761     14764
     14760     14758     14761     14762     14760     14758     14761     14763
     14760     14758     14761     14764     14761     14764     14767     14768
     14761     14764     14767     14769     14761     14764     14767     14770
     14762     14761     14764     14765     14762     14761     14764     14766
     14762     14761     14764     14767     14763     14761     14764     14765
     14763     14761     14764     14766     14763     14761     14764     14767
     14764     14767     14770     14771     14764     14767     14770     14772
     14764     14767     14770     14773     14765     14764     14767     14768
     14765     14764     14767     14769     14765     14764     14767     14770
     14766     14764     14767     14768     14766     14764     14767     14769
     14766     14764     14767     14770     14767     14770     14773     14774
     14767     14770     14773     14775     14767     14770     14773     14776
     14768     14767     14770     14771     14768     14767     14770     14772
     14768     14767     14770     14773     14769     14767     14770     14771
     14769     14767     14770     14772     14769     14767     14770     14773
     14770     14773     14776     14777     14770     14773     14776     14778
     14770     14773     14776     14779     14771     14770     14773     14774
     14771     14770     14773     14775     14771     14770     14773     14776
     14772     14770     14773     14774     14772     14770     14773     14775
     14772     14770     14773     14776     14773     14776     14779     14780
     14773     14776     14779     14781     14773     14776     14779     14782
     14774     14773     14776     14777     14774     14773     14776     14778
     14774     14773     14776     14779     14775     14773     14776     14777
     14775     14773     14776     14778     14775     14773     14776     14779
     14777     14776     14779     14780     14777     14776     14779     14781
     14777     14776     14779     14782     14778     14776     14779     14780
     14778     14776     14779     14781     14778     14776     14779     14782
     14783     14787     14790     14791     14783     14787     14790     14792
     14783     14787     14790     14797     14784     14783     14787     14788
     14784     14783     14787     14789     14784     14783     14787     14790
     14785     14783     14787     14788     14785     14783     14787     14789
     14785     14783     14787     14790     14786     14783     14787     14788
     14786     14783     14787     14789     14786     14783     14787     14790
     14787     14790     14797     14793     14788     14787     14790     14791
     14788     14787     14790     14792     14788     14787     14790     14797
     14789     14787     14790     14791     14789     14787     14790     14792
     14789     14787     14790     14797     14790     14797     14793     14794
     14790     14797     14793     14795     14790     14797     14793     14796
     14791     14790     14797     14793     14792     14790     14797     14793
     14793     14796     14798     14799     14793     14796     14798     14800
     14793     14796     14798     14801     14794     14793     14796     14798
     14795     14793     14796     14798     14796     14798     14801     14802
     14796     14798     14801     14803     14796     14798     14801     14809
     14797     14793     14796     14798     14798     14801     14803     14804
     14798     14801     14809     14810     14798     14801     14809     14811
     14798     14801     14809     14812     14799     14798     14801     14802
     14799     14798     14801     14803     14799     14798     14801     14809
     14800     14798     14801     14802     14800     14798     14801     14803
     14800     14798     14801     14809     14801     14803     14804     14805
     14801     14803     14804     14806     14801     14809     14812     14813
     14802     14801     14803     14804     14802     14801     14809     14810
     14802     14801     14809     14811     14802     14801     14809     14812
     14803     14801     14809     14810     14803     14801     14809     14811
     14803     14801     14809     14812     14803     14804     14806     14807
     14803     14804     14806     14808     14803     14804     14806     14818
     14804     14803     14801     14809     14804     14806     14818     14819
     14804     14806     14818     14820     14804     14806     14818     14821
     14805     14804     14806     14807     14805     14804     14806     14808
     14805     14804     14806     14818     14806     14818     14821     14822
     14806     14818     14821     14823     14806     14818     14821     14824
     14807     14806     14818     14819     14807     14806     14818     14820
     14807     14806     14818     14821     14808     14806     14818     14819
     14808     14806     14818     14820     14808     14806     14818     14821
     14809     14812     14813     14814     14809     14812     14813     14815
     14810     14809     14812     14813     14811     14809     14812     14813
     14812     14813     14815     14816     14812     14813     14815     14817
     14812     14813     14815     14862     14813     14815     14862     14863
     14813     14815     14862     14864     14813     14815     14862     14865
     14814     14813     14815     14816     14814     14813     14815     14817
     14814     14813     14815     14862     14815     14862     14865     14866
     14815     14862     14865     14867     14815     14862     14865     14868
     14816     14815     14862     14863     14816     14815     14862     14864
     14816     14815     14862     14865     14817     14815     14862     14863
     14817     14815     14862     14864     14817     14815     14862     14865
     14818     14821     14824     14825     14818     14821     14824     14826
     14818     14821     14824     14827     14819     14818     14821     14822
     14819     14818     14821     14823     14819     14818     14821     14824
     14820     14818     14821     14822     14820     14818     14821     14823
     14820     14818     14821     14824     14821     14824     14827     14828
     14821     14824     14827     14829     14821     14824     14827     14830
     14822     14821     14824     14825     14822     14821     14824     14826
     14822     14821     14824     14827     14823     14821     14824     14825
     14823     14821     14824     14826     14823     14821     14824     14827
     14824     14827     14830     14831     14824     14827     14830     14832
     14824     14827     14830     14833     14825     14824     14827     14828
     14825     14824     14827     14829     14825     14824     14827     14830
     14826     14824     14827     14828     14826     14824     14827     14829
     14826     14824     14827     14830     14827     14830     14833     14834
     14827     14830     14833     14835     14827     14830     14833     14836
     14828     14827     14830     14831     14828     14827     14830     14832
     14828     14827     14830     14833     14829     14827     14830     14831
     14829     14827     14830     14832     14829     14827     14830     14833
     14830     14833     14836     14837     14830     14833     14836     14838
     14830     14833     14836     14841     14831     14830     14833     14834
     14831     14830     14833     14835     14831     14830     14833     14836
     14832     14830     14833     14834     14832     14830     14833     14835
     14832     14830     14833     14836     14833     14836     14838     14839
     14833     14836     14838     14840     14833     14836     14838     14841
     14833     14836     14841     14838     14833     14836     14841     14842
     14833     14836     14841     14843     14834     14833     14836     14837
     14834     14833     14836     14838     14834     14833     14836     14841
     14835     14833     14836     14837     14835     14833     14836     14838
     14835     14833     14836     14841     14836     14838     14841     14842
     14836     14838     14841     14843     14836     14841     14838     14839
     14836     14841     14838     14840     14836     14841     14843     14844
     14836     14841     14843     14845     14836     14841     14843     14846
     14837     14836     14838     14839     14837     14836     14838     14840
     14837     14836     14838     14841     14837     14836     14841     14838
     14837     14836     14841     14842     14837     14836     14841     14843
     14838     14836     14841     14842     14838     14836     14841     14843
     14838     14841     14843     14844     14838     14841     14843     14845
     14838     14841     14843     14846     14839     14838     14836     14841
     14839     14838     14841     14842     14839     14838     14841     14843
     14840     14838     14836     14841     14840     14838     14841     14842
     14840     14838     14841     14843     14841     14843     14846     14847
     14841     14843     14846     14848     14841     14843     14846     14849
     14842     14841     14843     14844     14842     14841     14843     14845
     14842     14841     14843     14846     14843     14846     14849     14850
     14843     14846     14849     14851     14843     14846     14849     14852
     14844     14843     14846     14847     14844     14843     14846     14848
     14844     14843     14846     14849     14845     14843     14846     14847
     14845     14843     14846     14848     14845     14843     14846     14849
     14846     14849     14852     14853     14846     14849     14852     14854
     14846     14849     14852     14855     14847     14846     14849     14850
     14847     14846     14849     14851     14847     14846     14849     14852
     14848     14846     14849     14850     14848     14846     14849     14851
     14848     14846     14849     14852     14849     14852     14855     14856
     14849     14852     14855     14857     14849     14852     14855     14858
     14850     14849     14852     14853     14850     14849     14852     14854
     14850     14849     14852     14855     14851     14849     14852     14853
     14851     14849     14852     14854     14851     14849     14852     14855
     14852     14855     14858     14859     14852     14855     14858     14860
     14852     14855     14858     14861     14853     14852     14855     14856
     14853     14852     14855     14857     14853     14852     14855     14858
     14854     14852     14855     14856     14854     14852     14855     14857
     14854     14852     14855     14858     14856     14855     14858     14859
     14856     14855     14858     14860     14856     14855     14858     14861
     14857     14855     14858     14859     14857     14855     14858     14860
     14857     14855     14858     14861     14862     14865     14868     14869
     14862     14865     14868     14870     14862     14865     14868     14871
     14863     14862     14865     14866     14863     14862     14865     14867
     14863     14862     14865     14868     14864     14862     14865     14866
     14864     14862     14865     14867     14864     14862     14865     14868
     14865     14868     14871     14872     14865     14868     14871     14873
     14865     14868     14871     14874     14866     14865     14868     14869
     14866     14865     14868     14870     14866     14865     14868     14871
     14867     14865     14868     14869     14867     14865     14868     14870
     14867     14865     14868     14871     14868     14871     14874     14875
     14868     14871     14874     14876     14868     14871     14874     14877
     14869     14868     14871     14872     14869     14868     14871     14873
     14869     14868     14871     14874     14870     14868     14871     14872
     14870     14868     14871     14873     14870     14868     14871     14874
     14871     14874     14877     14878     14871     14874     14877     14879
     14871     14874     14877     14880     14872     14871     14874     14875
     14872     14871     14874     14876     14872     14871     14874     14877
     14873     14871     14874     14875     14873     14871     14874     14876
     14873     14871     14874     14877     14874     14877     14880     14881
     14874     14877     14880     14882     14874     14877     14880     14883
     14875     14874     14877     14878     14875     14874     14877     14879
     14875     14874     14877     14880     14876     14874     14877     14878
     14876     14874     14877     14879     14876     14874     14877     14880
     14877     14880     14883     14884     14877     14880     14883     14885
     14877     14880     14883     14886     14878     14877     14880     14881
     14878     14877     14880     14882     14878     14877     14880     14883
     14879     14877     14880     14881     14879     14877     14880     14882
     14879     14877     14880     14883     14880     14883     14886     14887
     14880     14883     14886     14888     14880     14883     14886     14889
     14881     14880     14883     14884     14881     14880     14883     14885
     14881     14880     14883     14886     14882     14880     14883     14884
     14882     14880     14883     14885     14882     14880     14883     14886
     14883     14886     14889     14890     14883     14886     14889     14891
     14883     14886     14889     14892     14884     14883     14886     14887
     14884     14883     14886     14888     14884     14883     14886     14889
     14885     14883     14886     14887     14885     14883     14886     14888
     14885     14883     14886     14889     14886     14889     14892     14893
     14886     14889     14892     14894     14886     14889     14892     14895
     14887     14886     14889     14890     14887     14886     14889     14891
     14887     14886     14889     14892     14888     14886     14889     14890
     14888     14886     14889     14891     14888     14886     14889     14892
     14889     14892     14895     14896     14889     14892     14895     14897
     14889     14892     14895     14898     14890     14889     14892     14893
     14890     14889     14892     14894     14890     14889     14892     14895
     14891     14889     14892     14893     14891     14889     14892     14894
     14891     14889     14892     14895     14892     14895     14898     14899
     14892     14895     14898     14900     14892     14895     14898     14901
     14893     14892     14895     14896     14893     14892     14895     14897
     14893     14892     14895     14898     14894     14892     14895     14896
     14894     14892     14895     14897     14894     14892     14895     14898
     14895     14898     14901     14902     14895     14898     14901     14903
     14895     14898     14901     14904     14896     14895     14898     14899
     14896     14895     14898     14900     14896     14895     14898     14901
     14897     14895     14898     14899     14897     14895     14898     14900
     14897     14895     14898     14901     14899     14898     14901     14902
     14899     14898     14901     14903     14899     14898     14901     14904
     14900     14898     14901     14902     14900     14898     14901     14903
     14900     14898     14901     14904     14905     14909     14912     14913
     14905     14909     14912     14914     14905     14909     14912     14919
     14906     14905     14909     14910     14906     14905     14909     14911
     14906     14905     14909     14912     14907     14905     14909     14910
     14907     14905     14909     14911     14907     14905     14909     14912
     14908     14905     14909     14910     14908     14905     14909     14911
     14908     14905     14909     14912     14909     14912     14919     14915
     14910     14909     14912     14913     14910     14909     14912     14914
     14910     14909     14912     14919     14911     14909     14912     14913
     14911     14909     14912     14914     14911     14909     14912     14919
     14912     14919     14915     14916     14912     14919     14915     14917
     14912     14919     14915     14918     14913     14912     14919     14915
     14914     14912     14919     14915     14915     14918     14920     14921
     14915     14918     14920     14922     14915     14918     14920     14923
     14916     14915     14918     14920     14917     14915     14918     14920
     14918     14920     14923     14924     14918     14920     14923     14925
     14918     14920     14923     14931     14919     14915     14918     14920
     14920     14923     14925     14926     14920     14923     14931     14932
     14920     14923     14931     14933     14920     14923     14931     14934
     14921     14920     14923     14924     14921     14920     14923     14925
     14921     14920     14923     14931     14922     14920     14923     14924
     14922     14920     14923     14925     14922     14920     14923     14931
     14923     14925     14926     14927     14923     14925     14926     14928
     14923     14931     14934     14935     14924     14923     14925     14926
     14924     14923     14931     14932     14924     14923     14931     14933
     14924     14923     14931     14934     14925     14923     14931     14932
     14925     14923     14931     14933     14925     14923     14931     14934
     14925     14926     14928     14929     14925     14926     14928     14930
     14925     14926     14928     14940     14926     14925     14923     14931
     14926     14928     14940     14941     14926     14928     14940     14942
     14926     14928     14940     14943     14927     14926     14928     14929
     14927     14926     14928     14930     14927     14926     14928     14940
     14928     14940     14943     14944     14928     14940     14943     14945
     14928     14940     14943     14946     14929     14928     14940     14941
     14929     14928     14940     14942     14929     14928     14940     14943
     14930     14928     14940     14941     14930     14928     14940     14942
     14930     14928     14940     14943     14931     14934     14935     14936
     14931     14934     14935     14937     14932     14931     14934     14935
     14933     14931     14934     14935     14934     14935     14937     14938
     14934     14935     14937     14939     14934     14935     14937     14981
     14935     14937     14981     14982     14935     14937     14981     14983
     14935     14937     14981     14984     14936     14935     14937     14938
     14936     14935     14937     14939     14936     14935     14937     14981
     14937     14981     14984     14985     14937     14981     14984     14986
     14937     14981     14984     14987     14938     14937     14981     14982
     14938     14937     14981     14983     14938     14937     14981     14984
     14939     14937     14981     14982     14939     14937     14981     14983
     14939     14937     14981     14984     14940     14943     14946     14947
     14940     14943     14946     14948     14940     14943     14946     14949
     14941     14940     14943     14944     14941     14940     14943     14945
     14941     14940     14943     14946     14942     14940     14943     14944
     14942     14940     14943     14945     14942     14940     14943     14946
     14943     14946     14949     14950     14943     14946     14949     14951
     14943     14946     14949     14952     14944     14943     14946     14947
     14944     14943     14946     14948     14944     14943     14946     14949
     14945     14943     14946     14947     14945     14943     14946     14948
     14945     14943     14946     14949     14946     14949     14952     14953
     14946     14949     14952     14954     14946     14949     14952     14955
     14947     14946     14949     14950     14947     14946     14949     14951
     14947     14946     14949     14952     14948     14946     14949     14950
     14948     14946     14949     14951     14948     14946     14949     14952
     14949     14952     14955     14956     14949     14952     14955     14957
     14949     14952     14955     14958     14950     14949     14952     14953
     14950     14949     14952     14954     14950     14949     14952     14955
     14951     14949     14952     14953     14951     14949     14952     14954
     14951     14949     14952     14955     14952     14955     14958     14959
     14952     14955     14958     14960     14953     14952     14955     14956
     14953     14952     14955     14957     14953     14952     14955     14958
     14954     14952     14955     14956     14954     14952     14955     14957
     14954     14952     14955     14958     14955     14958     14960     14961
     14955     14958     14960     14962     14956     14955     14958     14959
     14956     14955     14958     14960     14957     14955     14958     14959
     14957     14955     14958     14960     14958     14960     14962     14963
     14958     14960     14962     14964     14958     14960     14962     14965
     14959     14958     14960     14961     14959     14958     14960     14962
     14960     14962     14965     14966     14960     14962     14965     14967
     14960     14962     14965     14968     14961     14960     14962     14963
     14961     14960     14962     14964     14961     14960     14962     14965
     14962     14965     14968     14969     14962     14965     14968     14970
     14962     14965     14968     14971     14963     14962     14965     14966
     14963     14962     14965     14967     14963     14962     14965     14968
     14964     14962     14965     14966     14964     14962     14965     14967
     14964     14962     14965     14968     14965     14968     14971     14972
     14965     14968     14971     14973     14965     14968     14971     14974
     14966     14965     14968     14969     14966     14965     14968     14970
     14966     14965     14968     14971     14967     14965     14968     14969
     14967     14965     14968     14970     14967     14965     14968     14971
     14968     14971     14974     14975     14968     14971     14974     14976
     14968     14971     14974     14977     14969     14968     14971     14972
     14969     14968     14971     14973     14969     14968     14971     14974
     14970     14968     14971     14972     14970     14968     14971     14973
     14970     14968     14971     14974     14971     14974     14977     14978
     14971     14974     14977     14979     14971     14974     14977     14980
     14972     14971     14974     14975     14972     14971     14974     14976
     14972     14971     14974     14977     14973     14971     14974     14975
     14973     14971     14974     14976     14973     14971     14974     14977
     14975     14974     14977     14978     14975     14974     14977     14979
     14975     14974     14977     14980     14976     14974     14977     14978
     14976     14974     14977     14979     14976     14974     14977     14980
     14981     14984     14987     14988     14981     14984     14987     14989
     14981     14984     14987     14990     14982     14981     14984     14985
     14982     14981     14984     14986     14982     14981     14984     14987
     14983     14981     14984     14985     14983     14981     14984     14986
     14983     14981     14984     14987     14984     14987     14990     14991
     14984     14987     14990     14992     14984     14987     14990     14993
     14985     14984     14987     14988     14985     14984     14987     14989
     14985     14984     14987     14990     14986     14984     14987     14988
     14986     14984     14987     14989     14986     14984     14987     14990
     14987     14990     14993     14994     14987     14990     14993     14995
     14987     14990     14993     14996     14988     14987     14990     14991
     14988     14987     14990     14992     14988     14987     14990     14993
     14989     14987     14990     14991     14989     14987     14990     14992
     14989     14987     14990     14993     14990     14993     14996     14997
     14990     14993     14996     14998     14990     14993     14996     14999
     14991     14990     14993     14994     14991     14990     14993     14995
     14991     14990     14993     14996     14992     14990     14993     14994
     14992     14990     14993     14995     14992     14990     14993     14996
     14993     14996     14999     15000     14993     14996     14999     15001
     14994     14993     14996     14997     14994     14993     14996     14998
     14994     14993     14996     14999     14995     14993     14996     14997
     14995     14993     14996     14998     14995     14993     14996     14999
     14996     14999     15001     15002     14996     14999     15001     15003
     14997     14996     14999     15000     14997     14996     14999     15001
     14998     14996     14999     15000     14998     14996     14999     15001
     14999     15001     15003     15004     14999     15001     15003     15005
     14999     15001     15003     15006     15000     14999     15001     15002
     15000     14999     15001     15003     15001     15003     15006     15007
     15001     15003     15006     15008     15001     15003     15006     15009
     15002     15001     15003     15004     15002     15001     15003     15005
     15002     15001     15003     15006     15003     15006     15009     15010
     15003     15006     15009     15011     15003     15006     15009     15012
     15004     15003     15006     15007     15004     15003     15006     15008
     15004     15003     15006     15009     15005     15003     15006     15007
     15005     15003     15006     15008     15005     15003     15006     15009
     15006     15009     15012     15013     15006     15009     15012     15014
     15006     15009     15012     15015     15007     15006     15009     15010
     15007     15006     15009     15011     15007     15006     15009     15012
     15008     15006     15009     15010     15008     15006     15009     15011
     15008     15006     15009     15012     15009     15012     15015     15016
     15009     15012     15015     15017     15009     15012     15015     15018
     15010     15009     15012     15013     15010     15009     15012     15014
     15010     15009     15012     15015     15011     15009     15012     15013
     15011     15009     15012     15014     15011     15009     15012     15015
     15012     15015     15018     15019     15012     15015     15018     15020
     15012     15015     15018     15021     15013     15012     15015     15016
     15013     15012     15015     15017     15013     15012     15015     15018
     15014     15012     15015     15016     15014     15012     15015     15017
     15014     15012     15015     15018     15015     15018     15021     15022
     15015     15018     15021     15023     15015     15018     15021     15024
     15016     15015     15018     15019     15016     15015     15018     15020
     15016     15015     15018     15021     15017     15015     15018     15019
     15017     15015     15018     15020     15017     15015     15018     15021
     15018     15021     15024     15025     15018     15021     15024     15026
     15018     15021     15024     15027     15019     15018     15021     15022
     15019     15018     15021     15023     15019     15018     15021     15024
     15020     15018     15021     15022     15020     15018     15021     15023
     15020     15018     15021     15024     15022     15021     15024     15025
     15022     15021     15024     15026     15022     15021     15024     15027
     15023     15021     15024     15025     15023     15021     15024     15026
     15023     15021     15024     15027     15028     15034     15031     15032
     15028     15034     15031     15033     15028     15034     15031     15035
     15028     15039     15041     15042     15028     15039     15043     15044
     15028     15039     15043     15045     15028     15039     15043     15049
     15029     15028     15034     15031     15029     15028     15039     15040
     15029     15028     15039     15041     15029     15028     15039     15043
     15030     15028     15034     15031     15030     15028     15039     15040
     15030     15028     15039     15041     15030     15028     15039     15043
     15031     15034     15028     15039     15031     15035     15036     15037
     15031     15035     15036     15038     15031     15035     15036     15071
     15032     15031     15035     15036     15033     15031     15035     15036
     15034     15028     15039     15040     15034     15028     15039     15041
     15034     15028     15039     15043     15034     15031     15035     15036
     15035     15036     15071     15072     15035     15036     15071     15073
     15035     15036     15071     15079     15036     15071     15073     15074
     15036     15071     15079     15080     15036     15071     15079     15081
     15036     15071     15079     15082     15037     15036     15071     15072
     15037     15036     15071     15073     15037     15036     15071     15079
     15038     15036     15071     15072     15038     15036     15071     15073
     15038     15036     15071     15079     15039     15043     15049     15046
     15040     15039     15041     15042     15040     15039     15043     15044
     15040     15039     15043     15045     15040     15039     15043     15049
     15041     15039     15043     15044     15041     15039     15043     15045
     15041     15039     15043     15049     15042     15041     15039     15043
     15043     15049     15046     15047     15043     15049     15046     15048
     15043     15049     15046     15050     15044     15043     15049     15046
     15045     15043     15049     15046     15046     15050     15051     15052
     15046     15050     15051     15053     15046     15050     15051     15054
     15047     15046     15050     15051     15048     15046     15050     15051
     15049     15046     15050     15051     15050     15051     15054     15055
     15050     15051     15054     15056     15050     15051     15054     15062
     15051     15054     15056     15057     15051     15054     15062     15063
     15051     15054     15062     15064     15051     15054     15062     15065
     15052     15051     15054     15055     15052     15051     15054     15056
     15052     15051     15054     15062     15053     15051     15054     15055
     15053     15051     15054     15056     15053     15051     15054     15062
     15054     15056     15057     15058     15054     15056     15057     15059
     15054     15062     15065     15066     15055     15054     15056     15057
     15055     15054     15062     15063     15055     15054     15062     15064
     15055     15054     15062     15065     15056     15054     15062     15063
     15056     15054     15062     15064     15056     15054     15062     15065
     15056     15057     15059     15060     15056     15057     15059     15061
     15056     15057     15059     15088     15057     15056     15054     15062
     15057     15059     15088     15089     15057     15059     15088     15090
     15057     15059     15088     15091     15058     15057     15059     15060
     15058     15057     15059     15061     15058     15057     15059     15088
     15059     15088     15091     15092     15059     15088     15091     15093
     15059     15088     15091     15094     15060     15059     15088     15089
     15060     15059     15088     15090     15060     15059     15088     15091
     15061     15059     15088     15089     15061     15059     15088     15090
     15061     15059     15088     15091     15062     15065     15066     15067
     15062     15065     15066     15068     15063     15062     15065     15066
     15064     15062     15065     15066     15065     15066     15068     15069
     15065     15066     15068     15070     15065     15066     15068     15135
     15066     15068     15135     15136     15066     15068     15135     15137
     15066     15068     15135     15138     15067     15066     15068     15069
     15067     15066     15068     15070     15067     15066     15068     15135
     15068     15135     15138     15139     15068     15135     15138     15140
     15068     15135     15138     15141     15069     15068     15135     15136
     15069     15068     15135     15137     15069     15068     15135     15138
     15070     15068     15135     15136     15070     15068     15135     15137
     15070     15068     15135     15138     15071     15073     15074     15075
     15071     15073     15074     15076     15071     15079     15082     15083
     15072     15071     15073     15074     15072     15071     15079     15080
     15072     15071     15079     15081     15072     15071     15079     15082
     15073     15071     15079     15080     15073     15071     15079     15081
     15073     15071     15079     15082     15073     15074     15076     15077
     15073     15074     15076     15078     15073     15074     15076     15178
     15074     15073     15071     15079     15074     15076     15178     15179
     15074     15076     15178     15180     15074     15076     15178     15181
     15075     15074     15076     15077     15075     15074     15076     15078
     15075     15074     15076     15178     15076     15178     15181     15182
     15076     15178     15181     15183     15076     15178     15181     15184
     15077     15076     15178     15179     15077     15076     15178     15180
     15077     15076     15178     15181     15078     15076     15178     15179
     15078     15076     15178     15180     15078     15076     15178     15181
     15079     15082     15083     15084     15079     15082     15083     15085
     15080     15079     15082     15083     15081     15079     15082     15083
     15082     15083     15085     15086     15082     15083     15085     15087
     15082     15083     15085     15225     15083     15085     15225     15226
     15083     15085     15225     15227     15083     15085     15225     15228
     15084     15083     15085     15086     15084     15083     15085     15087
     15084     15083     15085     15225     15085     15225     15228     15229
     15085     15225     15228     15230     15085     15225     15228     15231
     15086     15085     15225     15226     15086     15085     15225     15227
     15086     15085     15225     15228     15087     15085     15225     15226
     15087     15085     15225     15227     15087     15085     15225     15228
     15088     15091     15094     15095     15088     15091     15094     15096
     15088     15091     15094     15097     15089     15088     15091     15092
     15089     15088     15091     15093     15089     15088     15091     15094
     15090     15088     15091     15092     15090     15088     15091     15093
     15090     15088     15091     15094     15091     15094     15097     15098
     15091     15094     15097     15099     15091     15094     15097     15100
     15092     15091     15094     15095     15092     15091     15094     15096
     15092     15091     15094     15097     15093     15091     15094     15095
     15093     15091     15094     15096     15093     15091     15094     15097
     15094     15097     15100     15101     15094     15097     15100     15102
     15094     15097     15100     15103     15095     15094     15097     15098
     15095     15094     15097     15099     15095     15094     15097     15100
     15096     15094     15097     15098     15096     15094     15097     15099
     15096     15094     15097     15100     15097     15100     15103     15104
     15097     15100     15103     15105     15097     15100     15103     15106
     15098     15097     15100     15101     15098     15097     15100     15102
     15098     15097     15100     15103     15099     15097     15100     15101
     15099     15097     15100     15102     15099     15097     15100     15103
     15100     15103     15106     15107     15100     15103     15106     15108
     15100     15103     15106     15109     15101     15100     15103     15104
     15101     15100     15103     15105     15101     15100     15103     15106
     15102     15100     15103     15104     15102     15100     15103     15105
     15102     15100     15103     15106     15103     15106     15109     15110
     15103     15106     15109     15111     15103     15106     15109     15112
     15104     15103     15106     15107     15104     15103     15106     15108
     15104     15103     15106     15109     15105     15103     15106     15107
     15105     15103     15106     15108     15105     15103     15106     15109
     15106     15109     15112     15113     15106     15109     15112     15114
     15107     15106     15109     15110     15107     15106     15109     15111
     15107     15106     15109     15112     15108     15106     15109     15110
     15108     15106     15109     15111     15108     15106     15109     15112
     15109     15112     15114     15115     15109     15112     15114     15116
     15110     15109     15112     15113     15110     15109     15112     15114
     15111     15109     15112     15113     15111     15109     15112     15114
     15112     15114     15116     15117     15112     15114     15116     15118
     15112     15114     15116     15119     15113     15112     15114     15115
     15113     15112     15114     15116     15114     15116     15119     15120
     15114     15116     15119     15121     15114     15116     15119     15122
     15115     15114     15116     15117     15115     15114     15116     15118
     15115     15114     15116     15119     15116     15119     15122     15123
     15116     15119     15122     15124     15116     15119     15122     15125
     15117     15116     15119     15120     15117     15116     15119     15121
     15117     15116     15119     15122     15118     15116     15119     15120
     15118     15116     15119     15121     15118     15116     15119     15122
     15119     15122     15125     15126     15119     15122     15125     15127
     15119     15122     15125     15128     15120     15119     15122     15123
     15120     15119     15122     15124     15120     15119     15122     15125
     15121     15119     15122     15123     15121     15119     15122     15124
     15121     15119     15122     15125     15122     15125     15128     15129
     15122     15125     15128     15130     15122     15125     15128     15131
     15123     15122     15125     15126     15123     15122     15125     15127
     15123     15122     15125     15128     15124     15122     15125     15126
     15124     15122     15125     15127     15124     15122     15125     15128
     15125     15128     15131     15132     15125     15128     15131     15133
     15125     15128     15131     15134     15126     15125     15128     15129
     15126     15125     15128     15130     15126     15125     15128     15131
     15127     15125     15128     15129     15127     15125     15128     15130
     15127     15125     15128     15131     15129     15128     15131     15132
     15129     15128     15131     15133     15129     15128     15131     15134
     15130     15128     15131     15132     15130     15128     15131     15133
     15130     15128     15131     15134     15135     15138     15141     15142
     15135     15138     15141     15143     15135     15138     15141     15144
     15136     15135     15138     15139     15136     15135     15138     15140
     15136     15135     15138     15141     15137     15135     15138     15139
     15137     15135     15138     15140     15137     15135     15138     15141
     15138     15141     15144     15145     15138     15141     15144     15146
     15138     15141     15144     15147     15139     15138     15141     15142
     15139     15138     15141     15143     15139     15138     15141     15144
     15140     15138     15141     15142     15140     15138     15141     15143
     15140     15138     15141     15144     15141     15144     15147     15148
     15141     15144     15147     15149     15141     15144     15147     15150
     15142     15141     15144     15145     15142     15141     15144     15146
     15142     15141     15144     15147     15143     15141     15144     15145
     15143     15141     15144     15146     15143     15141     15144     15147
     15144     15147     15150     15151     15144     15147     15150     15152
     15144     15147     15150     15153     15145     15144     15147     15148
     15145     15144     15147     15149     15145     15144     15147     15150
     15146     15144     15147     15148     15146     15144     15147     15149
     15146     15144     15147     15150     15147     15150     15153     15154
     15147     15150     15153     15155     15147     15150     15153     15156
     15148     15147     15150     15151     15148     15147     15150     15152
     15148     15147     15150     15153     15149     15147     15150     15151
     15149     15147     15150     15152     15149     15147     15150     15153
     15150     15153     15156     15157     15150     15153     15156     15158
     15150     15153     15156     15159     15151     15150     15153     15154
     15151     15150     15153     15155     15151     15150     15153     15156
     15152     15150     15153     15154     15152     15150     15153     15155
     15152     15150     15153     15156     15153     15156     15159     15160
     15153     15156     15159     15161     15153     15156     15159     15162
     15154     15153     15156     15157     15154     15153     15156     15158
     15154     15153     15156     15159     15155     15153     15156     15157
     15155     15153     15156     15158     15155     15153     15156     15159
     15156     15159     15162     15163     15156     15159     15162     15164
     15156     15159     15162     15165     15157     15156     15159     15160
     15157     15156     15159     15161     15157     15156     15159     15162
     15158     15156     15159     15160     15158     15156     15159     15161
     15158     15156     15159     15162     15159     15162     15165     15166
     15159     15162     15165     15167     15159     15162     15165     15168
     15160     15159     15162     15163     15160     15159     15162     15164
     15160     15159     15162     15165     15161     15159     15162     15163
     15161     15159     15162     15164     15161     15159     15162     15165
     15162     15165     15168     15169     15162     15165     15168     15170
     15162     15165     15168     15171     15163     15162     15165     15166
     15163     15162     15165     15167     15163     15162     15165     15168
     15164     15162     15165     15166     15164     15162     15165     15167
     15164     15162     15165     15168     15165     15168     15171     15172
     15165     15168     15171     15173     15165     15168     15171     15174
     15166     15165     15168     15169     15166     15165     15168     15170
     15166     15165     15168     15171     15167     15165     15168     15169
     15167     15165     15168     15170     15167     15165     15168     15171
     15168     15171     15174     15175     15168     15171     15174     15176
     15168     15171     15174     15177     15169     15168     15171     15172
     15169     15168     15171     15173     15169     15168     15171     15174
     15170     15168     15171     15172     15170     15168     15171     15173
     15170     15168     15171     15174     15172     15171     15174     15175
     15172     15171     15174     15176     15172     15171     15174     15177
     15173     15171     15174     15175     15173     15171     15174     15176
     15173     15171     15174     15177     15178     15181     15184     15185
     15178     15181     15184     15186     15178     15181     15184     15187
     15179     15178     15181     15182     15179     15178     15181     15183
     15179     15178     15181     15184     15180     15178     15181     15182
     15180     15178     15181     15183     15180     15178     15181     15184
     15181     15184     15187     15188     15181     15184     15187     15189
     15181     15184     15187     15190     15182     15181     15184     15185
     15182     15181     15184     15186     15182     15181     15184     15187
     15183     15181     15184     15185     15183     15181     15184     15186
     15183     15181     15184     15187     15184     15187     15190     15191
     15184     15187     15190     15192     15184     15187     15190     15193
     15185     15184     15187     15188     15185     15184     15187     15189
     15185     15184     15187     15190     15186     15184     15187     15188
     15186     15184     15187     15189     15186     15184     15187     15190
     15187     15190     15193     15194     15187     15190     15193     15195
     15187     15190     15193     15196     15188     15187     15190     15191
     15188     15187     15190     15192     15188     15187     15190     15193
     15189     15187     15190     15191     15189     15187     15190     15192
     15189     15187     15190     15193     15190     15193     15196     15197
     15190     15193     15196     15198     15190     15193     15196     15199
     15191     15190     15193     15194     15191     15190     15193     15195
     15191     15190     15193     15196     15192     15190     15193     15194
     15192     15190     15193     15195     15192     15190     15193     15196
     15193     15196     15199     15200     15193     15196     15199     15201
     15193     15196     15199     15202     15194     15193     15196     15197
     15194     15193     15196     15198     15194     15193     15196     15199
     15195     15193     15196     15197     15195     15193     15196     15198
     15195     15193     15196     15199     15196     15199     15202     15203
     15196     15199     15202     15204     15197     15196     15199     15200
     15197     15196     15199     15201     15197     15196     15199     15202
     15198     15196     15199     15200     15198     15196     15199     15201
     15198     15196     15199     15202     15199     15202     15204     15205
     15199     15202     15204     15206     15200     15199     15202     15203
     15200     15199     15202     15204     15201     15199     15202     15203
     15201     15199     15202     15204     15202     15204     15206     15207
     15202     15204     15206     15208     15202     15204     15206     15209
     15203     15202     15204     15205     15203     15202     15204     15206
     15204     15206     15209     15210     15204     15206     15209     15211
     15204     15206     15209     15212     15205     15204     15206     15207
     15205     15204     15206     15208     15205     15204     15206     15209
     15206     15209     15212     15213     15206     15209     15212     15214
     15206     15209     15212     15215     15207     15206     15209     15210
     15207     15206     15209     15211     15207     15206     15209     15212
     15208     15206     15209     15210     15208     15206     15209     15211
     15208     15206     15209     15212     15209     15212     15215     15216
     15209     15212     15215     15217     15209     15212     15215     15218
     15210     15209     15212     15213     15210     15209     15212     15214
     15210     15209     15212     15215     15211     15209     15212     15213
     15211     15209     15212     15214     15211     15209     15212     15215
     15212     15215     15218     15219     15212     15215     15218     15220
     15212     15215     15218     15221     15213     15212     15215     15216
     15213     15212     15215     15217     15213     15212     15215     15218
     15214     15212     15215     15216     15214     15212     15215     15217
     15214     15212     15215     15218     15215     15218     15221     15222
     15215     15218     15221     15223     15215     15218     15221     15224
     15216     15215     15218     15219     15216     15215     15218     15220
     15216     15215     15218     15221     15217     15215     15218     15219
     15217     15215     15218     15220     15217     15215     15218     15221
     15219     15218     15221     15222     15219     15218     15221     15223
     15219     15218     15221     15224     15220     15218     15221     15222
     15220     15218     15221     15223     15220     15218     15221     15224
     15225     15228     15231     15232     15225     15228     15231     15233
     15225     15228     15231     15234     15226     15225     15228     15229
     15226     15225     15228     15230     15226     15225     15228     15231
     15227     15225     15228     15229     15227     15225     15228     15230
     15227     15225     15228     15231     15228     15231     15234     15235
     15228     15231     15234     15236     15228     15231     15234     15237
     15229     15228     15231     15232     15229     15228     15231     15233
     15229     15228     15231     15234     15230     15228     15231     15232
     15230     15228     15231     15233     15230     15228     15231     15234
     15231     15234     15237     15238     15231     15234     15237     15239
     15231     15234     15237     15240     15232     15231     15234     15235
     15232     15231     15234     15236     15232     15231     15234     15237
     15233     15231     15234     15235     15233     15231     15234     15236
     15233     15231     15234     15237     15234     15237     15240     15241
     15234     15237     15240     15242     15234     15237     15240     15243
     15235     15234     15237     15238     15235     15234     15237     15239
     15235     15234     15237     15240     15236     15234     15237     15238
     15236     15234     15237     15239     15236     15234     15237     15240
     15237     15240     15243     15244     15237     15240     15243     15245
     15237     15240     15243     15246     15238     15237     15240     15241
     15238     15237     15240     15242     15238     15237     15240     15243
     15239     15237     15240     15241     15239     15237     15240     15242
     15239     15237     15240     15243     15240     15243     15246     15247
     15240     15243     15246     15248     15240     15243     15246     15249
     15241     15240     15243     15244     15241     15240     15243     15245
     15241     15240     15243     15246     15242     15240     15243     15244
     15242     15240     15243     15245     15242     15240     15243     15246
     15243     15246     15249     15250     15243     15246     15249     15251
     15243     15246     15249     15252     15244     15243     15246     15247
     15244     15243     15246     15248     15244     15243     15246     15249
     15245     15243     15246     15247     15245     15243     15246     15248
     15245     15243     15246     15249     15246     15249     15252     15253
     15246     15249     15252     15254     15246     15249     15252     15255
     15247     15246     15249     15250     15247     15246     15249     15251
     15247     15246     15249     15252     15248     15246     15249     15250
     15248     15246     15249     15251     15248     15246     15249     15252
     15249     15252     15255     15256     15249     15252     15255     15257
     15249     15252     15255     15258     15250     15249     15252     15253
     15250     15249     15252     15254     15250     15249     15252     15255
     15251     15249     15252     15253     15251     15249     15252     15254
     15251     15249     15252     15255     15252     15255     15258     15259
     15252     15255     15258     15260     15252     15255     15258     15261
     15253     15252     15255     15256     15253     15252     15255     15257
     15253     15252     15255     15258     15254     15252     15255     15256
     15254     15252     15255     15257     15254     15252     15255     15258
     15255     15258     15261     15262     15255     15258     15261     15263
     15255     15258     15261     15264     15256     15255     15258     15259
     15256     15255     15258     15260     15256     15255     15258     15261
     15257     15255     15258     15259     15257     15255     15258     15260
     15257     15255     15258     15261     15258     15261     15264     15265
     15258     15261     15264     15266     15258     15261     15264     15267
     15259     15258     15261     15262     15259     15258     15261     15263
     15259     15258     15261     15264     15260     15258     15261     15262
     15260     15258     15261     15263     15260     15258     15261     15264
     15262     15261     15264     15265     15262     15261     15264     15266
     15262     15261     15264     15267     15263     15261     15264     15265
     15263     15261     15264     15266     15263     15261     15264     15267
     15268     15272     15275     15276     15268     15272     15275     15277
     15268     15272     15275     15282     15269     15268     15272     15273
     15269     15268     15272     15274     15269     15268     15272     15275
     15270     15268     15272     15273     15270     15268     15272     15274
     15270     15268     15272     15275     15271     15268     15272     15273
     15271     15268     15272     15274     15271     15268     15272     15275
     15272     15275     15282     15278     15273     15272     15275     15276
     15273     15272     15275     15277     15273     15272     15275     15282
     15274     15272     15275     15276     15274     15272     15275     15277
     15274     15272     15275     15282     15275     15282     15278     15279
     15275     15282     15278     15280     15275     15282     15278     15281
     15276     15275     15282     15278     15277     15275     15282     15278
     15278     15281     15283     15284     15278     15281     15283     15285
     15278     15281     15283     15286     15279     15278     15281     15283
     15280     15278     15281     15283     15281     15283     15286     15287
     15281     15283     15286     15288     15281     15283     15286     15294
     15282     15278     15281     15283     15283     15286     15288     15289
     15283     15286     15294     15295     15283     15286     15294     15296
     15283     15286     15294     15297     15284     15283     15286     15287
     15284     15283     15286     15288     15284     15283     15286     15294
     15285     15283     15286     15287     15285     15283     15286     15288
     15285     15283     15286     15294     15286     15288     15289     15290
     15286     15288     15289     15291     15286     15294     15297     15298
     15287     15286     15288     15289     15287     15286     15294     15295
     15287     15286     15294     15296     15287     15286     15294     15297
     15288     15286     15294     15295     15288     15286     15294     15296
     15288     15286     15294     15297     15288     15289     15291     15292
     15288     15289     15291     15293     15288     15289     15291     15303
     15289     15288     15286     15294     15289     15291     15303     15304
     15289     15291     15303     15305     15289     15291     15303     15306
     15290     15289     15291     15292     15290     15289     15291     15293
     15290     15289     15291     15303     15291     15303     15306     15307
     15291     15303     15306     15308     15291     15303     15306     15309
     15292     15291     15303     15304     15292     15291     15303     15305
     15292     15291     15303     15306     15293     15291     15303     15304
     15293     15291     15303     15305     15293     15291     15303     15306
     15294     15297     15298     15299     15294     15297     15298     15300
     15295     15294     15297     15298     15296     15294     15297     15298
     15297     15298     15300     15301     15297     15298     15300     15302
     15297     15298     15300     15347     15298     15300     15347     15348
     15298     15300     15347     15349     15298     15300     15347     15350
     15299     15298     15300     15301     15299     15298     15300     15302
     15299     15298     15300     15347     15300     15347     15350     15351
     15300     15347     15350     15352     15300     15347     15350     15353
     15301     15300     15347     15348     15301     15300     15347     15349
     15301     15300     15347     15350     15302     15300     15347     15348
     15302     15300     15347     15349     15302     15300     15347     15350
     15303     15306     15309     15310     15303     15306     15309     15311
     15303     15306     15309     15312     15304     15303     15306     15307
     15304     15303     15306     15308     15304     15303     15306     15309
     15305     15303     15306     15307     15305     15303     15306     15308
     15305     15303     15306     15309     15306     15309     15312     15313
     15306     15309     15312     15314     15306     15309     15312     15315
     15307     15306     15309     15310     15307     15306     15309     15311
     15307     15306     15309     15312     15308     15306     15309     15310
     15308     15306     15309     15311     15308     15306     15309     15312
     15309     15312     15315     15316     15309     15312     15315     15317
     15309     15312     15315     15318     15310     15309     15312     15313
     15310     15309     15312     15314     15310     15309     15312     15315
     15311     15309     15312     15313     15311     15309     15312     15314
     15311     15309     15312     15315     15312     15315     15318     15319
     15312     15315     15318     15320     15312     15315     15318     15321
     15313     15312     15315     15316     15313     15312     15315     15317
     15313     15312     15315     15318     15314     15312     15315     15316
     15314     15312     15315     15317     15314     15312     15315     15318
     15315     15318     15321     15322     15315     15318     15321     15323
     15315     15318     15321     15326     15316     15315     15318     15319
     15316     15315     15318     15320     15316     15315     15318     15321
     15317     15315     15318     15319     15317     15315     15318     15320
     15317     15315     15318     15321     15318     15321     15323     15324
     15318     15321     15323     15325     15318     15321     15323     15326
     15318     15321     15326     15323     15318     15321     15326     15327
     15318     15321     15326     15328     15319     15318     15321     15322
     15319     15318     15321     15323     15319     15318     15321     15326
     15320     15318     15321     15322     15320     15318     15321     15323
     15320     15318     15321     15326     15321     15323     15326     15327
     15321     15323     15326     15328     15321     15326     15323     15324
     15321     15326     15323     15325     15321     15326     15328     15329
     15321     15326     15328     15330     15321     15326     15328     15331
     15322     15321     15323     15324     15322     15321     15323     15325
     15322     15321     15323     15326     15322     15321     15326     15323
     15322     15321     15326     15327     15322     15321     15326     15328
     15323     15321     15326     15327     15323     15321     15326     15328
     15323     15326     15328     15329     15323     15326     15328     15330
     15323     15326     15328     15331     15324     15323     15321     15326
     15324     15323     15326     15327     15324     15323     15326     15328
     15325     15323     15321     15326     15325     15323     15326     15327
     15325     15323     15326     15328     15326     15328     15331     15332
     15326     15328     15331     15333     15326     15328     15331     15334
     15327     15326     15328     15329     15327     15326     15328     15330
     15327     15326     15328     15331     15328     15331     15334     15335
     15328     15331     15334     15336     15328     15331     15334     15337
     15329     15328     15331     15332     15329     15328     15331     15333
     15329     15328     15331     15334     15330     15328     15331     15332
     15330     15328     15331     15333     15330     15328     15331     15334
     15331     15334     15337     15338     15331     15334     15337     15339
     15331     15334     15337     15340     15332     15331     15334     15335
     15332     15331     15334     15336     15332     15331     15334     15337
     15333     15331     15334     15335     15333     15331     15334     15336
     15333     15331     15334     15337     15334     15337     15340     15341
     15334     15337     15340     15342     15334     15337     15340     15343
     15335     15334     15337     15338     15335     15334     15337     15339
     15335     15334     15337     15340     15336     15334     15337     15338
     15336     15334     15337     15339     15336     15334     15337     15340
     15337     15340     15343     15344     15337     15340     15343     15345
     15337     15340     15343     15346     15338     15337     15340     15341
     15338     15337     15340     15342     15338     15337     15340     15343
     15339     15337     15340     15341     15339     15337     15340     15342
     15339     15337     15340     15343     15341     15340     15343     15344
     15341     15340     15343     15345     15341     15340     15343     15346
     15342     15340     15343     15344     15342     15340     15343     15345
     15342     15340     15343     15346     15347     15350     15353     15354
     15347     15350     15353     15355     15347     15350     15353     15356
     15348     15347     15350     15351     15348     15347     15350     15352
     15348     15347     15350     15353     15349     15347     15350     15351
     15349     15347     15350     15352     15349     15347     15350     15353
     15350     15353     15356     15357     15350     15353     15356     15358
     15350     15353     15356     15359     15351     15350     15353     15354
     15351     15350     15353     15355     15351     15350     15353     15356
     15352     15350     15353     15354     15352     15350     15353     15355
     15352     15350     15353     15356     15353     15356     15359     15360
     15353     15356     15359     15361     15353     15356     15359     15362
     15354     15353     15356     15357     15354     15353     15356     15358
     15354     15353     15356     15359     15355     15353     15356     15357
     15355     15353     15356     15358     15355     15353     15356     15359
     15356     15359     15362     15363     15356     15359     15362     15364
     15356     15359     15362     15365     15357     15356     15359     15360
     15357     15356     15359     15361     15357     15356     15359     15362
     15358     15356     15359     15360     15358     15356     15359     15361
     15358     15356     15359     15362     15359     15362     15365     15366
     15359     15362     15365     15367     15359     15362     15365     15368
     15360     15359     15362     15363     15360     15359     15362     15364
     15360     15359     15362     15365     15361     15359     15362     15363
     15361     15359     15362     15364     15361     15359     15362     15365
     15362     15365     15368     15369     15362     15365     15368     15370
     15362     15365     15368     15371     15363     15362     15365     15366
     15363     15362     15365     15367     15363     15362     15365     15368
     15364     15362     15365     15366     15364     15362     15365     15367
     15364     15362     15365     15368     15365     15368     15371     15372
     15365     15368     15371     15373     15365     15368     15371     15374
     15366     15365     15368     15369     15366     15365     15368     15370
     15366     15365     15368     15371     15367     15365     15368     15369
     15367     15365     15368     15370     15367     15365     15368     15371
     15368     15371     15374     15375     15368     15371     15374     15376
     15368     15371     15374     15377     15369     15368     15371     15372
     15369     15368     15371     15373     15369     15368     15371     15374
     15370     15368     15371     15372     15370     15368     15371     15373
     15370     15368     15371     15374     15371     15374     15377     15378
     15371     15374     15377     15379     15371     15374     15377     15380
     15372     15371     15374     15375     15372     15371     15374     15376
     15372     15371     15374     15377     15373     15371     15374     15375
     15373     15371     15374     15376     15373     15371     15374     15377
     15374     15377     15380     15381     15374     15377     15380     15382
     15374     15377     15380     15383     15375     15374     15377     15378
     15375     15374     15377     15379     15375     15374     15377     15380
     15376     15374     15377     15378     15376     15374     15377     15379
     15376     15374     15377     15380     15377     15380     15383     15384
     15377     15380     15383     15385     15377     15380     15383     15386
     15378     15377     15380     15381     15378     15377     15380     15382
     15378     15377     15380     15383     15379     15377     15380     15381
     15379     15377     15380     15382     15379     15377     15380     15383
     15380     15383     15386     15387     15380     15383     15386     15388
     15380     15383     15386     15389     15381     15380     15383     15384
     15381     15380     15383     15385     15381     15380     15383     15386
     15382     15380     15383     15384     15382     15380     15383     15385
     15382     15380     15383     15386     15384     15383     15386     15387
     15384     15383     15386     15388     15384     15383     15386     15389
     15385     15383     15386     15387     15385     15383     15386     15388
     15385     15383     15386     15389     15390     15394     15397     15398
     15390     15394     15397     15399     15390     15394     15397     15404
     15391     15390     15394     15395     15391     15390     15394     15396
     15391     15390     15394     15397     15392     15390     15394     15395
     15392     15390     15394     15396     15392     15390     15394     15397
     15393     15390     15394     15395     15393     15390     15394     15396
     15393     15390     15394     15397     15394     15397     15404     15400
     15395     15394     15397     15398     15395     15394     15397     15399
     15395     15394     15397     15404     15396     15394     15397     15398
     15396     15394     15397     15399     15396     15394     15397     15404
     15397     15404     15400     15401     15397     15404     15400     15402
     15397     15404     15400     15403     15398     15397     15404     15400
     15399     15397     15404     15400     15400     15403     15405     15406
     15400     15403     15405     15407     15400     15403     15405     15408
     15401     15400     15403     15405     15402     15400     15403     15405
     15403     15405     15408     15409     15403     15405     15408     15410
     15403     15405     15408     15416     15404     15400     15403     15405
     15405     15408     15410     15411     15405     15408     15416     15417
     15405     15408     15416     15418     15405     15408     15416     15419
     15406     15405     15408     15409     15406     15405     15408     15410
     15406     15405     15408     15416     15407     15405     15408     15409
     15407     15405     15408     15410     15407     15405     15408     15416
     15408     15410     15411     15412     15408     15410     15411     15413
     15408     15416     15419     15420     15409     15408     15410     15411
     15409     15408     15416     15417     15409     15408     15416     15418
     15409     15408     15416     15419     15410     15408     15416     15417
     15410     15408     15416     15418     15410     15408     15416     15419
     15410     15411     15413     15414     15410     15411     15413     15415
     15410     15411     15413     15425     15411     15410     15408     15416
     15411     15413     15425     15426     15411     15413     15425     15427
     15411     15413     15425     15428     15412     15411     15413     15414
     15412     15411     15413     15415     15412     15411     15413     15425
     15413     15425     15428     15429     15413     15425     15428     15430
     15413     15425     15428     15431     15414     15413     15425     15426
     15414     15413     15425     15427     15414     15413     15425     15428
     15415     15413     15425     15426     15415     15413     15425     15427
     15415     15413     15425     15428     15416     15419     15420     15421
     15416     15419     15420     15422     15417     15416     15419     15420
     15418     15416     15419     15420     15419     15420     15422     15423
     15419     15420     15422     15424     15419     15420     15422     15466
     15420     15422     15466     15467     15420     15422     15466     15468
     15420     15422     15466     15469     15421     15420     15422     15423
     15421     15420     15422     15424     15421     15420     15422     15466
     15422     15466     15469     15470     15422     15466     15469     15471
     15422     15466     15469     15472     15423     15422     15466     15467
     15423     15422     15466     15468     15423     15422     15466     15469
     15424     15422     15466     15467     15424     15422     15466     15468
     15424     15422     15466     15469     15425     15428     15431     15432
     15425     15428     15431     15433     15425     15428     15431     15434
     15426     15425     15428     15429     15426     15425     15428     15430
     15426     15425     15428     15431     15427     15425     15428     15429
     15427     15425     15428     15430     15427     15425     15428     15431
     15428     15431     15434     15435     15428     15431     15434     15436
     15428     15431     15434     15437     15429     15428     15431     15432
     15429     15428     15431     15433     15429     15428     15431     15434
     15430     15428     15431     15432     15430     15428     15431     15433
     15430     15428     15431     15434     15431     15434     15437     15438
     15431     15434     15437     15439     15431     15434     15437     15440
     15432     15431     15434     15435     15432     15431     15434     15436
     15432     15431     15434     15437     15433     15431     15434     15435
     15433     15431     15434     15436     15433     15431     15434     15437
     15434     15437     15440     15441     15434     15437     15440     15442
     15434     15437     15440     15443     15435     15434     15437     15438
     15435     15434     15437     15439     15435     15434     15437     15440
     15436     15434     15437     15438     15436     15434     15437     15439
     15436     15434     15437     15440     15437     15440     15443     15444
     15437     15440     15443     15445     15438     15437     15440     15441
     15438     15437     15440     15442     15438     15437     15440     15443
     15439     15437     15440     15441     15439     15437     15440     15442
     15439     15437     15440     15443     15440     15443     15445     15446
     15440     15443     15445     15447     15441     15440     15443     15444
     15441     15440     15443     15445     15442     15440     15443     15444
     15442     15440     15443     15445     15443     15445     15447     15448
     15443     15445     15447     15449     15443     15445     15447     15450
     15444     15443     15445     15446     15444     15443     15445     15447
     15445     15447     15450     15451     15445     15447     15450     15452
     15445     15447     15450     15453     15446     15445     15447     15448
     15446     15445     15447     15449     15446     15445     15447     15450
     15447     15450     15453     15454     15447     15450     15453     15455
     15447     15450     15453     15456     15448     15447     15450     15451
     15448     15447     15450     15452     15448     15447     15450     15453
     15449     15447     15450     15451     15449     15447     15450     15452
     15449     15447     15450     15453     15450     15453     15456     15457
     15450     15453     15456     15458     15450     15453     15456     15459
     15451     15450     15453     15454     15451     15450     15453     15455
     15451     15450     15453     15456     15452     15450     15453     15454
     15452     15450     15453     15455     15452     15450     15453     15456
     15453     15456     15459     15460     15453     15456     15459     15461
     15453     15456     15459     15462     15454     15453     15456     15457
     15454     15453     15456     15458     15454     15453     15456     15459
     15455     15453     15456     15457     15455     15453     15456     15458
     15455     15453     15456     15459     15456     15459     15462     15463
     15456     15459     15462     15464     15456     15459     15462     15465
     15457     15456     15459     15460     15457     15456     15459     15461
     15457     15456     15459     15462     15458     15456     15459     15460
     15458     15456     15459     15461     15458     15456     15459     15462
     15460     15459     15462     15463     15460     15459     15462     15464
     15460     15459     15462     15465     15461     15459     15462     15463
     15461     15459     15462     15464     15461     15459     15462     15465
     15466     15469     15472     15473     15466     15469     15472     15474
     15466     15469     15472     15475     15467     15466     15469     15470
     15467     15466     15469     15471     15467     15466     15469     15472
     15468     15466     15469     15470     15468     15466     15469     15471
     15468     15466     15469     15472     15469     15472     15475     15476
     15469     15472     15475     15477     15469     15472     15475     15478
     15470     15469     15472     15473     15470     15469     15472     15474
     15470     15469     15472     15475     15471     15469     15472     15473
     15471     15469     15472     15474     15471     15469     15472     15475
     15472     15475     15478     15479     15472     15475     15478     15480
     15472     15475     15478     15481     15473     15472     15475     15476
     15473     15472     15475     15477     15473     15472     15475     15478
     15474     15472     15475     15476     15474     15472     15475     15477
     15474     15472     15475     15478     15475     15478     15481     15482
     15475     15478     15481     15483     15475     15478     15481     15484
     15476     15475     15478     15479     15476     15475     15478     15480
     15476     15475     15478     15481     15477     15475     15478     15479
     15477     15475     15478     15480     15477     15475     15478     15481
     15478     15481     15484     15485     15478     15481     15484     15486
     15479     15478     15481     15482     15479     15478     15481     15483
     15479     15478     15481     15484     15480     15478     15481     15482
     15480     15478     15481     15483     15480     15478     15481     15484
     15481     15484     15486     15487     15481     15484     15486     15488
     15482     15481     15484     15485     15482     15481     15484     15486
     15483     15481     15484     15485     15483     15481     15484     15486
     15484     15486     15488     15489     15484     15486     15488     15490
     15484     15486     15488     15491     15485     15484     15486     15487
     15485     15484     15486     15488     15486     15488     15491     15492
     15486     15488     15491     15493     15486     15488     15491     15494
     15487     15486     15488     15489     15487     15486     15488     15490
     15487     15486     15488     15491     15488     15491     15494     15495
     15488     15491     15494     15496     15488     15491     15494     15497
     15489     15488     15491     15492     15489     15488     15491     15493
     15489     15488     15491     15494     15490     15488     15491     15492
     15490     15488     15491     15493     15490     15488     15491     15494
     15491     15494     15497     15498     15491     15494     15497     15499
     15491     15494     15497     15500     15492     15491     15494     15495
     15492     15491     15494     15496     15492     15491     15494     15497
     15493     15491     15494     15495     15493     15491     15494     15496
     15493     15491     15494     15497     15494     15497     15500     15501
     15494     15497     15500     15502     15494     15497     15500     15503
     15495     15494     15497     15498     15495     15494     15497     15499
     15495     15494     15497     15500     15496     15494     15497     15498
     15496     15494     15497     15499     15496     15494     15497     15500
     15497     15500     15503     15504     15497     15500     15503     15505
     15497     15500     15503     15506     15498     15497     15500     15501
     15498     15497     15500     15502     15498     15497     15500     15503
     15499     15497     15500     15501     15499     15497     15500     15502
     15499     15497     15500     15503     15500     15503     15506     15507
     15500     15503     15506     15508     15500     15503     15506     15509
     15501     15500     15503     15504     15501     15500     15503     15505
     15501     15500     15503     15506     15502     15500     15503     15504
     15502     15500     15503     15505     15502     15500     15503     15506
     15503     15506     15509     15510     15503     15506     15509     15511
     15503     15506     15509     15512     15504     15503     15506     15507
     15504     15503     15506     15508     15504     15503     15506     15509
     15505     15503     15506     15507     15505     15503     15506     15508
     15505     15503     15506     15509     15507     15506     15509     15510
     15507     15506     15509     15511     15507     15506     15509     15512
     15508     15506     15509     15510     15508     15506     15509     15511
     15508     15506     15509     15512     15513     15517     15520     15521
     15513     15517     15520     15522     15513     15517     15520     15527
     15514     15513     15517     15518     15514     15513     15517     15519
     15514     15513     15517     15520     15515     15513     15517     15518
     15515     15513     15517     15519     15515     15513     15517     15520
     15516     15513     15517     15518     15516     15513     15517     15519
     15516     15513     15517     15520     15517     15520     15527     15523
     15518     15517     15520     15521     15518     15517     15520     15522
     15518     15517     15520     15527     15519     15517     15520     15521
     15519     15517     15520     15522     15519     15517     15520     15527
     15520     15527     15523     15524     15520     15527     15523     15525
     15520     15527     15523     15526     15521     15520     15527     15523
     15522     15520     15527     15523     15523     15526     15528     15529
     15523     15526     15528     15530     15523     15526     15528     15531
     15524     15523     15526     15528     15525     15523     15526     15528
     15526     15528     15531     15532     15526     15528     15531     15533
     15526     15528     15531     15539     15527     15523     15526     15528
     15528     15531     15533     15534     15528     15531     15539     15540
     15528     15531     15539     15541     15528     15531     15539     15542
     15529     15528     15531     15532     15529     15528     15531     15533
     15529     15528     15531     15539     15530     15528     15531     15532
     15530     15528     15531     15533     15530     15528     15531     15539
     15531     15533     15534     15535     15531     15533     15534     15536
     15531     15539     15542     15543     15532     15531     15533     15534
     15532     15531     15539     15540     15532     15531     15539     15541
     15532     15531     15539     15542     15533     15531     15539     15540
     15533     15531     15539     15541     15533     15531     15539     15542
     15533     15534     15536     15537     15533     15534     15536     15538
     15533     15534     15536     15548     15534     15533     15531     15539
     15534     15536     15548     15549     15534     15536     15548     15550
     15534     15536     15548     15551     15535     15534     15536     15537
     15535     15534     15536     15538     15535     15534     15536     15548
     15536     15548     15551     15552     15536     15548     15551     15553
     15536     15548     15551     15554     15537     15536     15548     15549
     15537     15536     15548     15550     15537     15536     15548     15551
     15538     15536     15548     15549     15538     15536     15548     15550
     15538     15536     15548     15551     15539     15542     15543     15544
     15539     15542     15543     15545     15540     15539     15542     15543
     15541     15539     15542     15543     15542     15543     15545     15546
     15542     15543     15545     15547     15542     15543     15545     15592
     15543     15545     15592     15593     15543     15545     15592     15594
     15543     15545     15592     15595     15544     15543     15545     15546
     15544     15543     15545     15547     15544     15543     15545     15592
     15545     15592     15595     15596     15545     15592     15595     15597
     15545     15592     15595     15598     15546     15545     15592     15593
     15546     15545     15592     15594     15546     15545     15592     15595
     15547     15545     15592     15593     15547     15545     15592     15594
     15547     15545     15592     15595     15548     15551     15554     15555
     15548     15551     15554     15556     15548     15551     15554     15557
     15549     15548     15551     15552     15549     15548     15551     15553
     15549     15548     15551     15554     15550     15548     15551     15552
     15550     15548     15551     15553     15550     15548     15551     15554
     15551     15554     15557     15558     15551     15554     15557     15559
     15551     15554     15557     15560     15552     15551     15554     15555
     15552     15551     15554     15556     15552     15551     15554     15557
     15553     15551     15554     15555     15553     15551     15554     15556
     15553     15551     15554     15557     15554     15557     15560     15561
     15554     15557     15560     15562     15554     15557     15560     15563
     15555     15554     15557     15558     15555     15554     15557     15559
     15555     15554     15557     15560     15556     15554     15557     15558
     15556     15554     15557     15559     15556     15554     15557     15560
     15557     15560     15563     15564     15557     15560     15563     15565
     15557     15560     15563     15566     15558     15557     15560     15561
     15558     15557     15560     15562     15558     15557     15560     15563
     15559     15557     15560     15561     15559     15557     15560     15562
     15559     15557     15560     15563     15560     15563     15566     15567
     15560     15563     15566     15568     15560     15563     15566     15571
     15561     15560     15563     15564     15561     15560     15563     15565
     15561     15560     15563     15566     15562     15560     15563     15564
     15562     15560     15563     15565     15562     15560     15563     15566
     15563     15566     15568     15569     15563     15566     15568     15570
     15563     15566     15568     15571     15563     15566     15571     15568
     15563     15566     15571     15572     15563     15566     15571     15573
     15564     15563     15566     15567     15564     15563     15566     15568
     15564     15563     15566     15571     15565     15563     15566     15567
     15565     15563     15566     15568     15565     15563     15566     15571
     15566     15568     15571     15572     15566     15568     15571     15573
     15566     15571     15568     15569     15566     15571     15568     15570
     15566     15571     15573     15574     15566     15571     15573     15575
     15566     15571     15573     15576     15567     15566     15568     15569
     15567     15566     15568     15570     15567     15566     15568     15571
     15567     15566     15571     15568     15567     15566     15571     15572
     15567     15566     15571     15573     15568     15566     15571     15572
     15568     15566     15571     15573     15568     15571     15573     15574
     15568     15571     15573     15575     15568     15571     15573     15576
     15569     15568     15566     15571     15569     15568     15571     15572
     15569     15568     15571     15573     15570     15568     15566     15571
     15570     15568     15571     15572     15570     15568     15571     15573
     15571     15573     15576     15577     15571     15573     15576     15578
     15571     15573     15576     15579     15572     15571     15573     15574
     15572     15571     15573     15575     15572     15571     15573     15576
     15573     15576     15579     15580     15573     15576     15579     15581
     15573     15576     15579     15582     15574     15573     15576     15577
     15574     15573     15576     15578     15574     15573     15576     15579
     15575     15573     15576     15577     15575     15573     15576     15578
     15575     15573     15576     15579     15576     15579     15582     15583
     15576     15579     15582     15584     15576     15579     15582     15585
     15577     15576     15579     15580     15577     15576     15579     15581
     15577     15576     15579     15582     15578     15576     15579     15580
     15578     15576     15579     15581     15578     15576     15579     15582
     15579     15582     15585     15586     15579     15582     15585     15587
     15579     15582     15585     15588     15580     15579     15582     15583
     15580     15579     15582     15584     15580     15579     15582     15585
     15581     15579     15582     15583     15581     15579     15582     15584
     15581     15579     15582     15585     15582     15585     15588     15589
     15582     15585     15588     15590     15582     15585     15588     15591
     15583     15582     15585     15586     15583     15582     15585     15587
     15583     15582     15585     15588     15584     15582     15585     15586
     15584     15582     15585     15587     15584     15582     15585     15588
     15586     15585     15588     15589     15586     15585     15588     15590
     15586     15585     15588     15591     15587     15585     15588     15589
     15587     15585     15588     15590     15587     15585     15588     15591
     15592     15595     15598     15599     15592     15595     15598     15600
     15592     15595     15598     15601     15593     15592     15595     15596
     15593     15592     15595     15597     15593     15592     15595     15598
     15594     15592     15595     15596     15594     15592     15595     15597
     15594     15592     15595     15598     15595     15598     15601     15602
     15595     15598     15601     15603     15595     15598     15601     15604
     15596     15595     15598     15599     15596     15595     15598     15600
     15596     15595     15598     15601     15597     15595     15598     15599
     15597     15595     15598     15600     15597     15595     15598     15601
     15598     15601     15604     15605     15598     15601     15604     15606
     15598     15601     15604     15607     15599     15598     15601     15602
     15599     15598     15601     15603     15599     15598     15601     15604
     15600     15598     15601     15602     15600     15598     15601     15603
     15600     15598     15601     15604     15601     15604     15607     15608
     15601     15604     15607     15609     15601     15604     15607     15610
     15602     15601     15604     15605     15602     15601     15604     15606
     15602     15601     15604     15607     15603     15601     15604     15605
     15603     15601     15604     15606     15603     15601     15604     15607
     15604     15607     15610     15611     15604     15607     15610     15612
     15604     15607     15610     15613     15605     15604     15607     15608
     15605     15604     15607     15609     15605     15604     15607     15610
     15606     15604     15607     15608     15606     15604     15607     15609
     15606     15604     15607     15610     15607     15610     15613     15614
     15607     15610     15613     15615     15607     15610     15613     15616
     15608     15607     15610     15611     15608     15607     15610     15612
     15608     15607     15610     15613     15609     15607     15610     15611
     15609     15607     15610     15612     15609     15607     15610     15613
     15610     15613     15616     15617     15610     15613     15616     15618
     15610     15613     15616     15619     15611     15610     15613     15614
     15611     15610     15613     15615     15611     15610     15613     15616
     15612     15610     15613     15614     15612     15610     15613     15615
     15612     15610     15613     15616     15613     15616     15619     15620
     15613     15616     15619     15621     15613     15616     15619     15622
     15614     15613     15616     15617     15614     15613     15616     15618
     15614     15613     15616     15619     15615     15613     15616     15617
     15615     15613     15616     15618     15615     15613     15616     15619
     15616     15619     15622     15623     15616     15619     15622     15624
     15616     15619     15622     15625     15617     15616     15619     15620
     15617     15616     15619     15621     15617     15616     15619     15622
     15618     15616     15619     15620     15618     15616     15619     15621
     15618     15616     15619     15622     15619     15622     15625     15626
     15619     15622     15625     15627     15619     15622     15625     15628
     15620     15619     15622     15623     15620     15619     15622     15624
     15620     15619     15622     15625     15621     15619     15622     15623
     15621     15619     15622     15624     15621     15619     15622     15625
     15622     15625     15628     15629     15622     15625     15628     15630
     15622     15625     15628     15631     15623     15622     15625     15626
     15623     15622     15625     15627     15623     15622     15625     15628
     15624     15622     15625     15626     15624     15622     15625     15627
     15624     15622     15625     15628     15625     15628     15631     15632
     15625     15628     15631     15633     15625     15628     15631     15634
     15626     15625     15628     15629     15626     15625     15628     15630
     15626     15625     15628     15631     15627     15625     15628     15629
     15627     15625     15628     15630     15627     15625     15628     15631
     15629     15628     15631     15632     15629     15628     15631     15633
     15629     15628     15631     15634     15630     15628     15631     15632
     15630     15628     15631     15633     15630     15628     15631     15634
     15635     15639     15642     15643     15635     15639     15642     15644
     15635     15639     15642     15649     15636     15635     15639     15640
     15636     15635     15639     15641     15636     15635     15639     15642
     15637     15635     15639     15640     15637     15635     15639     15641
     15637     15635     15639     15642     15638     15635     15639     15640
     15638     15635     15639     15641     15638     15635     15639     15642
     15639     15642     15649     15645     15640     15639     15642     15643
     15640     15639     15642     15644     15640     15639     15642     15649
     15641     15639     15642     15643     15641     15639     15642     15644
     15641     15639     15642     15649     15642     15649     15645     15646
     15642     15649     15645     15647     15642     15649     15645     15648
     15643     15642     15649     15645     15644     15642     15649     15645
     15645     15648     15650     15651     15645     15648     15650     15652
     15645     15648     15650     15653     15646     15645     15648     15650
     15647     15645     15648     15650     15648     15650     15653     15654
     15648     15650     15653     15655     15648     15650     15653     15661
     15649     15645     15648     15650     15650     15653     15655     15656
     15650     15653     15661     15662     15650     15653     15661     15663
     15650     15653     15661     15664     15651     15650     15653     15654
     15651     15650     15653     15655     15651     15650     15653     15661
     15652     15650     15653     15654     15652     15650     15653     15655
     15652     15650     15653     15661     15653     15655     15656     15657
     15653     15655     15656     15658     15653     15661     15664     15665
     15654     15653     15655     15656     15654     15653     15661     15662
     15654     15653     15661     15663     15654     15653     15661     15664
     15655     15653     15661     15662     15655     15653     15661     15663
     15655     15653     15661     15664     15655     15656     15658     15659
     15655     15656     15658     15660     15655     15656     15658     15670
     15656     15655     15653     15661     15656     15658     15670     15671
     15656     15658     15670     15672     15656     15658     15670     15673
     15657     15656     15658     15659     15657     15656     15658     15660
     15657     15656     15658     15670     15658     15670     15673     15674
     15658     15670     15673     15675     15658     15670     15673     15676
     15659     15658     15670     15671     15659     15658     15670     15672
     15659     15658     15670     15673     15660     15658     15670     15671
     15660     15658     15670     15672     15660     15658     15670     15673
     15661     15664     15665     15666     15661     15664     15665     15667
     15662     15661     15664     15665     15663     15661     15664     15665
     15664     15665     15667     15668     15664     15665     15667     15669
     15664     15665     15667     15714     15665     15667     15714     15715
     15665     15667     15714     15716     15665     15667     15714     15717
     15666     15665     15667     15668     15666     15665     15667     15669
     15666     15665     15667     15714     15667     15714     15717     15718
     15667     15714     15717     15719     15667     15714     15717     15720
     15668     15667     15714     15715     15668     15667     15714     15716
     15668     15667     15714     15717     15669     15667     15714     15715
     15669     15667     15714     15716     15669     15667     15714     15717
     15670     15673     15676     15677     15670     15673     15676     15678
     15670     15673     15676     15679     15671     15670     15673     15674
     15671     15670     15673     15675     15671     15670     15673     15676
     15672     15670     15673     15674     15672     15670     15673     15675
     15672     15670     15673     15676     15673     15676     15679     15680
     15673     15676     15679     15681     15673     15676     15679     15682
     15674     15673     15676     15677     15674     15673     15676     15678
     15674     15673     15676     15679     15675     15673     15676     15677
     15675     15673     15676     15678     15675     15673     15676     15679
     15676     15679     15682     15683     15676     15679     15682     15684
     15676     15679     15682     15685     15677     15676     15679     15680
     15677     15676     15679     15681     15677     15676     15679     15682
     15678     15676     15679     15680     15678     15676     15679     15681
     15678     15676     15679     15682     15679     15682     15685     15686
     15679     15682     15685     15687     15679     15682     15685     15688
     15680     15679     15682     15683     15680     15679     15682     15684
     15680     15679     15682     15685     15681     15679     15682     15683
     15681     15679     15682     15684     15681     15679     15682     15685
     15682     15685     15688     15689     15682     15685     15688     15690
     15682     15685     15688     15693     15683     15682     15685     15686
     15683     15682     15685     15687     15683     15682     15685     15688
     15684     15682     15685     15686     15684     15682     15685     15687
     15684     15682     15685     15688     15685     15688     15690     15691
     15685     15688     15690     15692     15685     15688     15690     15693
     15685     15688     15693     15690     15685     15688     15693     15694
     15685     15688     15693     15695     15686     15685     15688     15689
     15686     15685     15688     15690     15686     15685     15688     15693
     15687     15685     15688     15689     15687     15685     15688     15690
     15687     15685     15688     15693     15688     15690     15693     15694
     15688     15690     15693     15695     15688     15693     15690     15691
     15688     15693     15690     15692     15688     15693     15695     15696
     15688     15693     15695     15697     15688     15693     15695     15698
     15689     15688     15690     15691     15689     15688     15690     15692
     15689     15688     15690     15693     15689     15688     15693     15690
     15689     15688     15693     15694     15689     15688     15693     15695
     15690     15688     15693     15694     15690     15688     15693     15695
     15690     15693     15695     15696     15690     15693     15695     15697
     15690     15693     15695     15698     15691     15690     15688     15693
     15691     15690     15693     15694     15691     15690     15693     15695
     15692     15690     15688     15693     15692     15690     15693     15694
     15692     15690     15693     15695     15693     15695     15698     15699
     15693     15695     15698     15700     15693     15695     15698     15701
     15694     15693     15695     15696     15694     15693     15695     15697
     15694     15693     15695     15698     15695     15698     15701     15702
     15695     15698     15701     15703     15695     15698     15701     15704
     15696     15695     15698     15699     15696     15695     15698     15700
     15696     15695     15698     15701     15697     15695     15698     15699
     15697     15695     15698     15700     15697     15695     15698     15701
     15698     15701     15704     15705     15698     15701     15704     15706
     15698     15701     15704     15707     15699     15698     15701     15702
     15699     15698     15701     15703     15699     15698     15701     15704
     15700     15698     15701     15702     15700     15698     15701     15703
     15700     15698     15701     15704     15701     15704     15707     15708
     15701     15704     15707     15709     15701     15704     15707     15710
     15702     15701     15704     15705     15702     15701     15704     15706
     15702     15701     15704     15707     15703     15701     15704     15705
     15703     15701     15704     15706     15703     15701     15704     15707
     15704     15707     15710     15711     15704     15707     15710     15712
     15704     15707     15710     15713     15705     15704     15707     15708
     15705     15704     15707     15709     15705     15704     15707     15710
     15706     15704     15707     15708     15706     15704     15707     15709
     15706     15704     15707     15710     15708     15707     15710     15711
     15708     15707     15710     15712     15708     15707     15710     15713
     15709     15707     15710     15711     15709     15707     15710     15712
     15709     15707     15710     15713     15714     15717     15720     15721
     15714     15717     15720     15722     15714     15717     15720     15723
     15715     15714     15717     15718     15715     15714     15717     15719
     15715     15714     15717     15720     15716     15714     15717     15718
     15716     15714     15717     15719     15716     15714     15717     15720
     15717     15720     15723     15724     15717     15720     15723     15725
     15717     15720     15723     15726     15718     15717     15720     15721
     15718     15717     15720     15722     15718     15717     15720     15723
     15719     15717     15720     15721     15719     15717     15720     15722
     15719     15717     15720     15723     15720     15723     15726     15727
     15720     15723     15726     15728     15720     15723     15726     15729
     15721     15720     15723     15724     15721     15720     15723     15725
     15721     15720     15723     15726     15722     15720     15723     15724
     15722     15720     15723     15725     15722     15720     15723     15726
     15723     15726     15729     15730     15723     15726     15729     15731
     15723     15726     15729     15732     15724     15723     15726     15727
     15724     15723     15726     15728     15724     15723     15726     15729
     15725     15723     15726     15727     15725     15723     15726     15728
     15725     15723     15726     15729     15726     15729     15732     15733
     15726     15729     15732     15734     15726     15729     15732     15735
     15727     15726     15729     15730     15727     15726     15729     15731
     15727     15726     15729     15732     15728     15726     15729     15730
     15728     15726     15729     15731     15728     15726     15729     15732
     15729     15732     15735     15736     15729     15732     15735     15737
     15729     15732     15735     15738     15730     15729     15732     15733
     15730     15729     15732     15734     15730     15729     15732     15735
     15731     15729     15732     15733     15731     15729     15732     15734
     15731     15729     15732     15735     15732     15735     15738     15739
     15732     15735     15738     15740     15732     15735     15738     15741
     15733     15732     15735     15736     15733     15732     15735     15737
     15733     15732     15735     15738     15734     15732     15735     15736
     15734     15732     15735     15737     15734     15732     15735     15738
     15735     15738     15741     15742     15735     15738     15741     15743
     15735     15738     15741     15744     15736     15735     15738     15739
     15736     15735     15738     15740     15736     15735     15738     15741
     15737     15735     15738     15739     15737     15735     15738     15740
     15737     15735     15738     15741     15738     15741     15744     15745
     15738     15741     15744     15746     15738     15741     15744     15747
     15739     15738     15741     15742     15739     15738     15741     15743
     15739     15738     15741     15744     15740     15738     15741     15742
     15740     15738     15741     15743     15740     15738     15741     15744
     15741     15744     15747     15748     15741     15744     15747     15749
     15741     15744     15747     15750     15742     15741     15744     15745
     15742     15741     15744     15746     15742     15741     15744     15747
     15743     15741     15744     15745     15743     15741     15744     15746
     15743     15741     15744     15747     15744     15747     15750     15751
     15744     15747     15750     15752     15744     15747     15750     15753
     15745     15744     15747     15748     15745     15744     15747     15749
     15745     15744     15747     15750     15746     15744     15747     15748
     15746     15744     15747     15749     15746     15744     15747     15750
     15747     15750     15753     15754     15747     15750     15753     15755
     15747     15750     15753     15756     15748     15747     15750     15751
     15748     15747     15750     15752     15748     15747     15750     15753
     15749     15747     15750     15751     15749     15747     15750     15752
     15749     15747     15750     15753     15751     15750     15753     15754
     15751     15750     15753     15755     15751     15750     15753     15756
     15752     15750     15753     15754     15752     15750     15753     15755
     15752     15750     15753     15756     15757     15761     15764     15765
     15757     15761     15764     15766     15757     15761     15764     15771
     15758     15757     15761     15762     15758     15757     15761     15763
     15758     15757     15761     15764     15759     15757     15761     15762
     15759     15757     15761     15763     15759     15757     15761     15764
     15760     15757     15761     15762     15760     15757     15761     15763
     15760     15757     15761     15764     15761     15764     15771     15767
     15762     15761     15764     15765     15762     15761     15764     15766
     15762     15761     15764     15771     15763     15761     15764     15765
     15763     15761     15764     15766     15763     15761     15764     15771
     15764     15771     15767     15768     15764     15771     15767     15769
     15764     15771     15767     15770     15765     15764     15771     15767
     15766     15764     15771     15767     15767     15770     15772     15773
     15767     15770     15772     15774     15767     15770     15772     15775
     15768     15767     15770     15772     15769     15767     15770     15772
     15770     15772     15775     15776     15770     15772     15775     15777
     15770     15772     15775     15783     15771     15767     15770     15772
     15772     15775     15777     15778     15772     15775     15783     15784
     15772     15775     15783     15785     15772     15775     15783     15786
     15773     15772     15775     15776     15773     15772     15775     15777
     15773     15772     15775     15783     15774     15772     15775     15776
     15774     15772     15775     15777     15774     15772     15775     15783
     15775     15777     15778     15779     15775     15777     15778     15780
     15775     15783     15786     15787     15776     15775     15777     15778
     15776     15775     15783     15784     15776     15775     15783     15785
     15776     15775     15783     15786     15777     15775     15783     15784
     15777     15775     15783     15785     15777     15775     15783     15786
     15777     15778     15780     15781     15777     15778     15780     15782
     15777     15778     15780     15792     15778     15777     15775     15783
     15778     15780     15792     15793     15778     15780     15792     15794
     15778     15780     15792     15795     15779     15778     15780     15781
     15779     15778     15780     15782     15779     15778     15780     15792
     15780     15792     15795     15796     15780     15792     15795     15797
     15780     15792     15795     15798     15781     15780     15792     15793
     15781     15780     15792     15794     15781     15780     15792     15795
     15782     15780     15792     15793     15782     15780     15792     15794
     15782     15780     15792     15795     15783     15786     15787     15788
     15783     15786     15787     15789     15784     15783     15786     15787
     15785     15783     15786     15787     15786     15787     15789     15790
     15786     15787     15789     15791     15786     15787     15789     15836
     15787     15789     15836     15837     15787     15789     15836     15838
     15787     15789     15836     15839     15788     15787     15789     15790
     15788     15787     15789     15791     15788     15787     15789     15836
     15789     15836     15839     15840     15789     15836     15839     15841
     15789     15836     15839     15842     15790     15789     15836     15837
     15790     15789     15836     15838     15790     15789     15836     15839
     15791     15789     15836     15837     15791     15789     15836     15838
     15791     15789     15836     15839     15792     15795     15798     15799
     15792     15795     15798     15800     15792     15795     15798     15801
     15793     15792     15795     15796     15793     15792     15795     15797
     15793     15792     15795     15798     15794     15792     15795     15796
     15794     15792     15795     15797     15794     15792     15795     15798
     15795     15798     15801     15802     15795     15798     15801     15803
     15795     15798     15801     15804     15796     15795     15798     15799
     15796     15795     15798     15800     15796     15795     15798     15801
     15797     15795     15798     15799     15797     15795     15798     15800
     15797     15795     15798     15801     15798     15801     15804     15805
     15798     15801     15804     15806     15798     15801     15804     15807
     15799     15798     15801     15802     15799     15798     15801     15803
     15799     15798     15801     15804     15800     15798     15801     15802
     15800     15798     15801     15803     15800     15798     15801     15804
     15801     15804     15807     15808     15801     15804     15807     15809
     15801     15804     15807     15810     15802     15801     15804     15805
     15802     15801     15804     15806     15802     15801     15804     15807
     15803     15801     15804     15805     15803     15801     15804     15806
     15803     15801     15804     15807     15804     15807     15810     15811
     15804     15807     15810     15812     15804     15807     15810     15815
     15805     15804     15807     15808     15805     15804     15807     15809
     15805     15804     15807     15810     15806     15804     15807     15808
     15806     15804     15807     15809     15806     15804     15807     15810
     15807     15810     15812     15813     15807     15810     15812     15814
     15807     15810     15812     15815     15807     15810     15815     15812
     15807     15810     15815     15816     15807     15810     15815     15817
     15808     15807     15810     15811     15808     15807     15810     15812
     15808     15807     15810     15815     15809     15807     15810     15811
     15809     15807     15810     15812     15809     15807     15810     15815
     15810     15812     15815     15816     15810     15812     15815     15817
     15810     15815     15812     15813     15810     15815     15812     15814
     15810     15815     15817     15818     15810     15815     15817     15819
     15810     15815     15817     15820     15811     15810     15812     15813
     15811     15810     15812     15814     15811     15810     15812     15815
     15811     15810     15815     15812     15811     15810     15815     15816
     15811     15810     15815     15817     15812     15810     15815     15816
     15812     15810     15815     15817     15812     15815     15817     15818
     15812     15815     15817     15819     15812     15815     15817     15820
     15813     15812     15810     15815     15813     15812     15815     15816
     15813     15812     15815     15817     15814     15812     15810     15815
     15814     15812     15815     15816     15814     15812     15815     15817
     15815     15817     15820     15821     15815     15817     15820     15822
     15815     15817     15820     15823     15816     15815     15817     15818
     15816     15815     15817     15819     15816     15815     15817     15820
     15817     15820     15823     15824     15817     15820     15823     15825
     15817     15820     15823     15826     15818     15817     15820     15821
     15818     15817     15820     15822     15818     15817     15820     15823
     15819     15817     15820     15821     15819     15817     15820     15822
     15819     15817     15820     15823     15820     15823     15826     15827
     15820     15823     15826     15828     15820     15823     15826     15829
     15821     15820     15823     15824     15821     15820     15823     15825
     15821     15820     15823     15826     15822     15820     15823     15824
     15822     15820     15823     15825     15822     15820     15823     15826
     15823     15826     15829     15830     15823     15826     15829     15831
     15823     15826     15829     15832     15824     15823     15826     15827
     15824     15823     15826     15828     15824     15823     15826     15829
     15825     15823     15826     15827     15825     15823     15826     15828
     15825     15823     15826     15829     15826     15829     15832     15833
     15826     15829     15832     15834     15826     15829     15832     15835
     15827     15826     15829     15830     15827     15826     15829     15831
     15827     15826     15829     15832     15828     15826     15829     15830
     15828     15826     15829     15831     15828     15826     15829     15832
     15830     15829     15832     15833     15830     15829     15832     15834
     15830     15829     15832     15835     15831     15829     15832     15833
     15831     15829     15832     15834     15831     15829     15832     15835
     15836     15839     15842     15843     15836     15839     15842     15844
     15836     15839     15842     15845     15837     15836     15839     15840
     15837     15836     15839     15841     15837     15836     15839     15842
     15838     15836     15839     15840     15838     15836     15839     15841
     15838     15836     15839     15842     15839     15842     15845     15846
     15839     15842     15845     15847     15839     15842     15845     15848
     15840     15839     15842     15843     15840     15839     15842     15844
     15840     15839     15842     15845     15841     15839     15842     15843
     15841     15839     15842     15844     15841     15839     15842     15845
     15842     15845     15848     15849     15842     15845     15848     15850
     15842     15845     15848     15851     15843     15842     15845     15846
     15843     15842     15845     15847     15843     15842     15845     15848
     15844     15842     15845     15846     15844     15842     15845     15847
     15844     15842     15845     15848     15845     15848     15851     15852
     15845     15848     15851     15853     15845     15848     15851     15854
     15846     15845     15848     15849     15846     15845     15848     15850
     15846     15845     15848     15851     15847     15845     15848     15849
     15847     15845     15848     15850     15847     15845     15848     15851
     15848     15851     15854     15855     15848     15851     15854     15856
     15848     15851     15854     15857     15849     15848     15851     15852
     15849     15848     15851     15853     15849     15848     15851     15854
     15850     15848     15851     15852     15850     15848     15851     15853
     15850     15848     15851     15854     15851     15854     15857     15858
     15851     15854     15857     15859     15851     15854     15857     15860
     15852     15851     15854     15855     15852     15851     15854     15856
     15852     15851     15854     15857     15853     15851     15854     15855
     15853     15851     15854     15856     15853     15851     15854     15857
     15854     15857     15860     15861     15854     15857     15860     15862
     15854     15857     15860     15863     15855     15854     15857     15858
     15855     15854     15857     15859     15855     15854     15857     15860
     15856     15854     15857     15858     15856     15854     15857     15859
     15856     15854     15857     15860     15857     15860     15863     15864
     15857     15860     15863     15865     15857     15860     15863     15866
     15858     15857     15860     15861     15858     15857     15860     15862
     15858     15857     15860     15863     15859     15857     15860     15861
     15859     15857     15860     15862     15859     15857     15860     15863
     15860     15863     15866     15867     15860     15863     15866     15868
     15860     15863     15866     15869     15861     15860     15863     15864
     15861     15860     15863     15865     15861     15860     15863     15866
     15862     15860     15863     15864     15862     15860     15863     15865
     15862     15860     15863     15866     15863     15866     15869     15870
     15863     15866     15869     15871     15863     15866     15869     15872
     15864     15863     15866     15867     15864     15863     15866     15868
     15864     15863     15866     15869     15865     15863     15866     15867
     15865     15863     15866     15868     15865     15863     15866     15869
     15866     15869     15872     15873     15866     15869     15872     15874
     15866     15869     15872     15875     15867     15866     15869     15870
     15867     15866     15869     15871     15867     15866     15869     15872
     15868     15866     15869     15870     15868     15866     15869     15871
     15868     15866     15869     15872     15870     15869     15872     15873
     15870     15869     15872     15874     15870     15869     15872     15875
     15871     15869     15872     15873     15871     15869     15872     15874
     15871     15869     15872     15875     15876     15881     15883     15884
     15876     15881     15885     15886     15876     15881     15885     15887
     15876     15881     15885     15892     15877     15876     15879     15880
     15877     15876     15881     15882     15877     15876     15881     15883
     15877     15876     15881     15885     15878     15876     15879     15880
     15878     15876     15881     15882     15878     15876     15881     15883
     15878     15876     15881     15885     15879     15876     15881     15882
     15879     15876     15881     15883     15879     15876     15881     15885
     15880     15879     15876     15881     15881     15885     15892     15888
     15882     15881     15883     15884     15882     15881     15885     15886
     15882     15881     15885     15887     15882     15881     15885     15892
     15883     15881     15885     15886     15883     15881     15885     15887
     15883     15881     15885     15892     15884     15883     15881     15885
     15885     15892     15888     15889     15885     15892     15888     15890
     15885     15892     15888     15891     15886     15885     15892     15888
     15887     15885     15892     15888     15888     15891     15893     15894
     15888     15891     15893     15895     15888     15891     15893     15896
     15889     15888     15891     15893     15890     15888     15891     15893
     15891     15893     15896     15897     15891     15893     15896     15898
     15891     15893     15896     15904     15892     15888     15891     15893
     15893     15896     15898     15899     15893     15896     15904     15905
     15893     15896     15904     15906     15893     15896     15904     15907
     15894     15893     15896     15897     15894     15893     15896     15898
     15894     15893     15896     15904     15895     15893     15896     15897
     15895     15893     15896     15898     15895     15893     15896     15904
     15896     15898     15899     15900     15896     15898     15899     15901
     15896     15904     15907     15908     15897     15896     15898     15899
     15897     15896     15904     15905     15897     15896     15904     15906
     15897     15896     15904     15907     15898     15896     15904     15905
     15898     15896     15904     15906     15898     15896     15904     15907
     15898     15899     15901     15902     15898     15899     15901     15903
     15898     15899     15901     15913     15899     15898     15896     15904
     15899     15901     15913     15914     15899     15901     15913     15915
     15899     15901     15913     15916     15900     15899     15901     15902
     15900     15899     15901     15903     15900     15899     15901     15913
     15901     15913     15916     15917     15901     15913     15916     15918
     15901     15913     15916     15919     15902     15901     15913     15914
     15902     15901     15913     15915     15902     15901     15913     15916
     15903     15901     15913     15914     15903     15901     15913     15915
     15903     15901     15913     15916     15904     15907     15908     15909
     15904     15907     15908     15910     15905     15904     15907     15908
     15906     15904     15907     15908     15907     15908     15910     15911
     15907     15908     15910     15912     15907     15908     15910     15954
     15908     15910     15954     15955     15908     15910     15954     15956
     15908     15910     15954     15957     15909     15908     15910     15911
     15909     15908     15910     15912     15909     15908     15910     15954
     15910     15954     15957     15958     15910     15954     15957     15959
     15910     15954     15957     15960     15911     15910     15954     15955
     15911     15910     15954     15956     15911     15910     15954     15957
     15912     15910     15954     15955     15912     15910     15954     15956
     15912     15910     15954     15957     15913     15916     15919     15920
     15913     15916     15919     15921     15913     15916     15919     15922
     15914     15913     15916     15917     15914     15913     15916     15918
     15914     15913     15916     15919     15915     15913     15916     15917
     15915     15913     15916     15918     15915     15913     15916     15919
     15916     15919     15922     15923     15916     15919     15922     15924
     15916     15919     15922     15925     15917     15916     15919     15920
     15917     15916     15919     15921     15917     15916     15919     15922
     15918     15916     15919     15920     15918     15916     15919     15921
     15918     15916     15919     15922     15919     15922     15925     15926
     15919     15922     15925     15927     15919     15922     15925     15928
     15920     15919     15922     15923     15920     15919     15922     15924
     15920     15919     15922     15925     15921     15919     15922     15923
     15921     15919     15922     15924     15921     15919     15922     15925
     15922     15925     15928     15929     15922     15925     15928     15930
     15922     15925     15928     15931     15923     15922     15925     15926
     15923     15922     15925     15927     15923     15922     15925     15928
     15924     15922     15925     15926     15924     15922     15925     15927
     15924     15922     15925     15928     15925     15928     15931     15932
     15925     15928     15931     15933     15926     15925     15928     15929
     15926     15925     15928     15930     15926     15925     15928     15931
     15927     15925     15928     15929     15927     15925     15928     15930
     15927     15925     15928     15931     15928     15931     15933     15934
     15928     15931     15933     15935     15929     15928     15931     15932
     15929     15928     15931     15933     15930     15928     15931     15932
     15930     15928     15931     15933     15931     15933     15935     15936
     15931     15933     15935     15937     15931     15933     15935     15938
     15932     15931     15933     15934     15932     15931     15933     15935
     15933     15935     15938     15939     15933     15935     15938     15940
     15933     15935     15938     15941     15934     15933     15935     15936
     15934     15933     15935     15937     15934     15933     15935     15938
     15935     15938     15941     15942     15935     15938     15941     15943
     15935     15938     15941     15944     15936     15935     15938     15939
     15936     15935     15938     15940     15936     15935     15938     15941
     15937     15935     15938     15939     15937     15935     15938     15940
     15937     15935     15938     15941     15938     15941     15944     15945
     15938     15941     15944     15946     15938     15941     15944     15947
     15939     15938     15941     15942     15939     15938     15941     15943
     15939     15938     15941     15944     15940     15938     15941     15942
     15940     15938     15941     15943     15940     15938     15941     15944
     15941     15944     15947     15948     15941     15944     15947     15949
     15941     15944     15947     15950     15942     15941     15944     15945
     15942     15941     15944     15946     15942     15941     15944     15947
     15943     15941     15944     15945     15943     15941     15944     15946
     15943     15941     15944     15947     15944     15947     15950     15951
     15944     15947     15950     15952     15944     15947     15950     15953
     15945     15944     15947     15948     15945     15944     15947     15949
     15945     15944     15947     15950     15946     15944     15947     15948
     15946     15944     15947     15949     15946     15944     15947     15950
     15948     15947     15950     15951     15948     15947     15950     15952
     15948     15947     15950     15953     15949     15947     15950     15951
     15949     15947     15950     15952     15949     15947     15950     15953
     15954     15957     15960     15961     15954     15957     15960     15962
     15954     15957     15960     15963     15955     15954     15957     15958
     15955     15954     15957     15959     15955     15954     15957     15960
     15956     15954     15957     15958     15956     15954     15957     15959
     15956     15954     15957     15960     15957     15960     15963     15964
     15957     15960     15963     15965     15957     15960     15963     15966
     15958     15957     15960     15961     15958     15957     15960     15962
     15958     15957     15960     15963     15959     15957     15960     15961
     15959     15957     15960     15962     15959     15957     15960     15963
     15960     15963     15966     15967     15960     15963     15966     15968
     15960     15963     15966     15969     15961     15960     15963     15964
     15961     15960     15963     15965     15961     15960     15963     15966
     15962     15960     15963     15964     15962     15960     15963     15965
     15962     15960     15963     15966     15963     15966     15969     15970
     15963     15966     15969     15971     15963     15966     15969     15972
     15964     15963     15966     15967     15964     15963     15966     15968
     15964     15963     15966     15969     15965     15963     15966     15967
     15965     15963     15966     15968     15965     15963     15966     15969
     15966     15969     15972     15973     15966     15969     15972     15974
     15966     15969     15972     15975     15967     15966     15969     15970
     15967     15966     15969     15971     15967     15966     15969     15972
     15968     15966     15969     15970     15968     15966     15969     15971
     15968     15966     15969     15972     15969     15972     15975     15976
     15969     15972     15975     15977     15969     15972     15975     15978
     15970     15969     15972     15973     15970     15969     15972     15974
     15970     15969     15972     15975     15971     15969     15972     15973
     15971     15969     15972     15974     15971     15969     15972     15975
     15972     15975     15978     15979     15972     15975     15978     15980
     15972     15975     15978     15981     15973     15972     15975     15976
     15973     15972     15975     15977     15973     15972     15975     15978
     15974     15972     15975     15976     15974     15972     15975     15977
     15974     15972     15975     15978     15975     15978     15981     15982
     15975     15978     15981     15983     15975     15978     15981     15984
     15976     15975     15978     15979     15976     15975     15978     15980
     15976     15975     15978     15981     15977     15975     15978     15979
     15977     15975     15978     15980     15977     15975     15978     15981
     15978     15981     15984     15985     15978     15981     15984     15986
     15978     15981     15984     15987     15979     15978     15981     15982
     15979     15978     15981     15983     15979     15978     15981     15984
     15980     15978     15981     15982     15980     15978     15981     15983
     15980     15978     15981     15984     15981     15984     15987     15988
     15981     15984     15987     15989     15981     15984     15987     15990
     15982     15981     15984     15985     15982     15981     15984     15986
     15982     15981     15984     15987     15983     15981     15984     15985
     15983     15981     15984     15986     15983     15981     15984     15987
     15984     15987     15990     15991     15984     15987     15990     15992
     15984     15987     15990     15993     15985     15984     15987     15988
     15985     15984     15987     15989     15985     15984     15987     15990
     15986     15984     15987     15988     15986     15984     15987     15989
     15986     15984     15987     15990     15987     15990     15993     15994
     15987     15990     15993     15995     15987     15990     15993     15996
     15988     15987     15990     15991     15988     15987     15990     15992
     15988     15987     15990     15993     15989     15987     15990     15991
     15989     15987     15990     15992     15989     15987     15990     15993
     15991     15990     15993     15994     15991     15990     15993     15995
     15991     15990     15993     15996     15992     15990     15993     15994
     15992     15990     15993     15995     15992     15990     15993     15996
     15997     16002     16004     16005     15997     16002     16006     16007
     15997     16002     16006     16008     15997     16002     16006     16013
     15998     15997     16000     16001     15998     15997     16002     16003
     15998     15997     16002     16004     15998     15997     16002     16006
     15999     15997     16000     16001     15999     15997     16002     16003
     15999     15997     16002     16004     15999     15997     16002     16006
     16000     15997     16002     16003     16000     15997     16002     16004
     16000     15997     16002     16006     16001     16000     15997     16002
     16002     16006     16013     16009     16003     16002     16004     16005
     16003     16002     16006     16007     16003     16002     16006     16008
     16003     16002     16006     16013     16004     16002     16006     16007
     16004     16002     16006     16008     16004     16002     16006     16013
     16005     16004     16002     16006     16006     16013     16009     16010
     16006     16013     16009     16011     16006     16013     16009     16012
     16007     16006     16013     16009     16008     16006     16013     16009
     16009     16012     16014     16015     16009     16012     16014     16016
     16009     16012     16014     16017     16010     16009     16012     16014
     16011     16009     16012     16014     16012     16014     16017     16018
     16012     16014     16017     16019     16012     16014     16017     16025
     16013     16009     16012     16014     16014     16017     16019     16020
     16014     16017     16025     16026     16014     16017     16025     16027
     16014     16017     16025     16028     16015     16014     16017     16018
     16015     16014     16017     16019     16015     16014     16017     16025
     16016     16014     16017     16018     16016     16014     16017     16019
     16016     16014     16017     16025     16017     16019     16020     16021
     16017     16019     16020     16022     16017     16025     16028     16029
     16018     16017     16019     16020     16018     16017     16025     16026
     16018     16017     16025     16027     16018     16017     16025     16028
     16019     16017     16025     16026     16019     16017     16025     16027
     16019     16017     16025     16028     16019     16020     16022     16023
     16019     16020     16022     16024     16019     16020     16022     16034
     16020     16019     16017     16025     16020     16022     16034     16035
     16020     16022     16034     16036     16020     16022     16034     16037
     16021     16020     16022     16023     16021     16020     16022     16024
     16021     16020     16022     16034     16022     16034     16037     16038
     16022     16034     16037     16039     16022     16034     16037     16040
     16023     16022     16034     16035     16023     16022     16034     16036
     16023     16022     16034     16037     16024     16022     16034     16035
     16024     16022     16034     16036     16024     16022     16034     16037
     16025     16028     16029     16030     16025     16028     16029     16031
     16026     16025     16028     16029     16027     16025     16028     16029
     16028     16029     16031     16032     16028     16029     16031     16033
     16028     16029     16031     16075     16029     16031     16075     16076
     16029     16031     16075     16077     16029     16031     16075     16078
     16030     16029     16031     16032     16030     16029     16031     16033
     16030     16029     16031     16075     16031     16075     16078     16079
     16031     16075     16078     16080     16031     16075     16078     16081
     16032     16031     16075     16076     16032     16031     16075     16077
     16032     16031     16075     16078     16033     16031     16075     16076
     16033     16031     16075     16077     16033     16031     16075     16078
     16034     16037     16040     16041     16034     16037     16040     16042
     16034     16037     16040     16043     16035     16034     16037     16038
     16035     16034     16037     16039     16035     16034     16037     16040
     16036     16034     16037     16038     16036     16034     16037     16039
     16036     16034     16037     16040     16037     16040     16043     16044
     16037     16040     16043     16045     16037     16040     16043     16046
     16038     16037     16040     16041     16038     16037     16040     16042
     16038     16037     16040     16043     16039     16037     16040     16041
     16039     16037     16040     16042     16039     16037     16040     16043
     16040     16043     16046     16047     16040     16043     16046     16048
     16040     16043     16046     16049     16041     16040     16043     16044
     16041     16040     16043     16045     16041     16040     16043     16046
     16042     16040     16043     16044     16042     16040     16043     16045
     16042     16040     16043     16046     16043     16046     16049     16050
     16043     16046     16049     16051     16043     16046     16049     16052
     16044     16043     16046     16047     16044     16043     16046     16048
     16044     16043     16046     16049     16045     16043     16046     16047
     16045     16043     16046     16048     16045     16043     16046     16049
     16046     16049     16052     16053     16046     16049     16052     16054
     16047     16046     16049     16050     16047     16046     16049     16051
     16047     16046     16049     16052     16048     16046     16049     16050
     16048     16046     16049     16051     16048     16046     16049     16052
     16049     16052     16054     16055     16049     16052     16054     16056
     16050     16049     16052     16053     16050     16049     16052     16054
     16051     16049     16052     16053     16051     16049     16052     16054
     16052     16054     16056     16057     16052     16054     16056     16058
     16052     16054     16056     16059     16053     16052     16054     16055
     16053     16052     16054     16056     16054     16056     16059     16060
     16054     16056     16059     16061     16054     16056     16059     16062
     16055     16054     16056     16057     16055     16054     16056     16058
     16055     16054     16056     16059     16056     16059     16062     16063
     16056     16059     16062     16064     16056     16059     16062     16065
     16057     16056     16059     16060     16057     16056     16059     16061
     16057     16056     16059     16062     16058     16056     16059     16060
     16058     16056     16059     16061     16058     16056     16059     16062
     16059     16062     16065     16066     16059     16062     16065     16067
     16059     16062     16065     16068     16060     16059     16062     16063
     16060     16059     16062     16064     16060     16059     16062     16065
     16061     16059     16062     16063     16061     16059     16062     16064
     16061     16059     16062     16065     16062     16065     16068     16069
     16062     16065     16068     16070     16062     16065     16068     16071
     16063     16062     16065     16066     16063     16062     16065     16067
     16063     16062     16065     16068     16064     16062     16065     16066
     16064     16062     16065     16067     16064     16062     16065     16068
     16065     16068     16071     16072     16065     16068     16071     16073
     16065     16068     16071     16074     16066     16065     16068     16069
     16066     16065     16068     16070     16066     16065     16068     16071
     16067     16065     16068     16069     16067     16065     16068     16070
     16067     16065     16068     16071     16069     16068     16071     16072
     16069     16068     16071     16073     16069     16068     16071     16074
     16070     16068     16071     16072     16070     16068     16071     16073
     16070     16068     16071     16074     16075     16078     16081     16082
     16075     16078     16081     16083     16075     16078     16081     16084
     16076     16075     16078     16079     16076     16075     16078     16080
     16076     16075     16078     16081     16077     16075     16078     16079
     16077     16075     16078     16080     16077     16075     16078     16081
     16078     16081     16084     16085     16078     16081     16084     16086
     16078     16081     16084     16087     16079     16078     16081     16082
     16079     16078     16081     16083     16079     16078     16081     16084
     16080     16078     16081     16082     16080     16078     16081     16083
     16080     16078     16081     16084     16081     16084     16087     16088
     16081     16084     16087     16089     16081     16084     16087     16090
     16082     16081     16084     16085     16082     16081     16084     16086
     16082     16081     16084     16087     16083     16081     16084     16085
     16083     16081     16084     16086     16083     16081     16084     16087
     16084     16087     16090     16091     16084     16087     16090     16092
     16084     16087     16090     16093     16085     16084     16087     16088
     16085     16084     16087     16089     16085     16084     16087     16090
     16086     16084     16087     16088     16086     16084     16087     16089
     16086     16084     16087     16090     16087     16090     16093     16094
     16087     16090     16093     16095     16087     16090     16093     16096
     16088     16087     16090     16091     16088     16087     16090     16092
     16088     16087     16090     16093     16089     16087     16090     16091
     16089     16087     16090     16092     16089     16087     16090     16093
     16090     16093     16096     16097     16090     16093     16096     16098
     16090     16093     16096     16099     16091     16090     16093     16094
     16091     16090     16093     16095     16091     16090     16093     16096
     16092     16090     16093     16094     16092     16090     16093     16095
     16092     16090     16093     16096     16093     16096     16099     16100
     16093     16096     16099     16101     16093     16096     16099     16102
     16094     16093     16096     16097     16094     16093     16096     16098
     16094     16093     16096     16099     16095     16093     16096     16097
     16095     16093     16096     16098     16095     16093     16096     16099
     16096     16099     16102     16103     16096     16099     16102     16104
     16096     16099     16102     16105     16097     16096     16099     16100
     16097     16096     16099     16101     16097     16096     16099     16102
     16098     16096     16099     16100     16098     16096     16099     16101
     16098     16096     16099     16102     16099     16102     16105     16106
     16099     16102     16105     16107     16099     16102     16105     16108
     16100     16099     16102     16103     16100     16099     16102     16104
     16100     16099     16102     16105     16101     16099     16102     16103
     16101     16099     16102     16104     16101     16099     16102     16105
     16102     16105     16108     16109     16102     16105     16108     16110
     16102     16105     16108     16111     16103     16102     16105     16106
     16103     16102     16105     16107     16103     16102     16105     16108
     16104     16102     16105     16106     16104     16102     16105     16107
     16104     16102     16105     16108     16105     16108     16111     16112
     16105     16108     16111     16113     16105     16108     16111     16114
     16106     16105     16108     16109     16106     16105     16108     16110
     16106     16105     16108     16111     16107     16105     16108     16109
     16107     16105     16108     16110     16107     16105     16108     16111
     16108     16111     16114     16115     16108     16111     16114     16116
     16108     16111     16114     16117     16109     16108     16111     16112
     16109     16108     16111     16113     16109     16108     16111     16114
     16110     16108     16111     16112     16110     16108     16111     16113
     16110     16108     16111     16114     16112     16111     16114     16115
     16112     16111     16114     16116     16112     16111     16114     16117
     16113     16111     16114     16115     16113     16111     16114     16116
     16113     16111     16114     16117     16118     16122     16125     16126
     16118     16122     16125     16127     16118     16122     16125     16132
     16119     16118     16122     16123     16119     16118     16122     16124
     16119     16118     16122     16125     16120     16118     16122     16123
     16120     16118     16122     16124     16120     16118     16122     16125
     16121     16118     16122     16123     16121     16118     16122     16124
     16121     16118     16122     16125     16122     16125     16132     16128
     16123     16122     16125     16126     16123     16122     16125     16127
     16123     16122     16125     16132     16124     16122     16125     16126
     16124     16122     16125     16127     16124     16122     16125     16132
     16125     16132     16128     16129     16125     16132     16128     16130
     16125     16132     16128     16131     16126     16125     16132     16128
     16127     16125     16132     16128     16128     16131     16133     16134
     16128     16131     16133     16135     16128     16131     16133     16136
     16129     16128     16131     16133     16130     16128     16131     16133
     16131     16133     16136     16137     16131     16133     16136     16138
     16131     16133     16136     16144     16132     16128     16131     16133
     16133     16136     16138     16139     16133     16136     16144     16145
     16133     16136     16144     16146     16133     16136     16144     16147
     16134     16133     16136     16137     16134     16133     16136     16138
     16134     16133     16136     16144     16135     16133     16136     16137
     16135     16133     16136     16138     16135     16133     16136     16144
     16136     16138     16139     16140     16136     16138     16139     16141
     16136     16144     16147     16148     16137     16136     16138     16139
     16137     16136     16144     16145     16137     16136     16144     16146
     16137     16136     16144     16147     16138     16136     16144     16145
     16138     16136     16144     16146     16138     16136     16144     16147
     16138     16139     16141     16142     16138     16139     16141     16143
     16138     16139     16141     16153     16139     16138     16136     16144
     16139     16141     16153     16154     16139     16141     16153     16155
     16139     16141     16153     16156     16140     16139     16141     16142
     16140     16139     16141     16143     16140     16139     16141     16153
     16141     16153     16156     16157     16141     16153     16156     16158
     16141     16153     16156     16159     16142     16141     16153     16154
     16142     16141     16153     16155     16142     16141     16153     16156
     16143     16141     16153     16154     16143     16141     16153     16155
     16143     16141     16153     16156     16144     16147     16148     16149
     16144     16147     16148     16150     16145     16144     16147     16148
     16146     16144     16147     16148     16147     16148     16150     16151
     16147     16148     16150     16152     16147     16148     16150     16197
     16148     16150     16197     16198     16148     16150     16197     16199
     16148     16150     16197     16200     16149     16148     16150     16151
     16149     16148     16150     16152     16149     16148     16150     16197
     16150     16197     16200     16201     16150     16197     16200     16202
     16150     16197     16200     16203     16151     16150     16197     16198
     16151     16150     16197     16199     16151     16150     16197     16200
     16152     16150     16197     16198     16152     16150     16197     16199
     16152     16150     16197     16200     16153     16156     16159     16160
     16153     16156     16159     16161     16153     16156     16159     16162
     16154     16153     16156     16157     16154     16153     16156     16158
     16154     16153     16156     16159     16155     16153     16156     16157
     16155     16153     16156     16158     16155     16153     16156     16159
     16156     16159     16162     16163     16156     16159     16162     16164
     16156     16159     16162     16165     16157     16156     16159     16160
     16157     16156     16159     16161     16157     16156     16159     16162
     16158     16156     16159     16160     16158     16156     16159     16161
     16158     16156     16159     16162     16159     16162     16165     16166
     16159     16162     16165     16167     16159     16162     16165     16168
     16160     16159     16162     16163     16160     16159     16162     16164
     16160     16159     16162     16165     16161     16159     16162     16163
     16161     16159     16162     16164     16161     16159     16162     16165
     16162     16165     16168     16169     16162     16165     16168     16170
     16162     16165     16168     16171     16163     16162     16165     16166
     16163     16162     16165     16167     16163     16162     16165     16168
     16164     16162     16165     16166     16164     16162     16165     16167
     16164     16162     16165     16168     16165     16168     16171     16172
     16165     16168     16171     16173     16165     16168     16171     16176
     16166     16165     16168     16169     16166     16165     16168     16170
     16166     16165     16168     16171     16167     16165     16168     16169
     16167     16165     16168     16170     16167     16165     16168     16171
     16168     16171     16173     16174     16168     16171     16173     16175
     16168     16171     16173     16176     16168     16171     16176     16173
     16168     16171     16176     16177     16168     16171     16176     16178
     16169     16168     16171     16172     16169     16168     16171     16173
     16169     16168     16171     16176     16170     16168     16171     16172
     16170     16168     16171     16173     16170     16168     16171     16176
     16171     16173     16176     16177     16171     16173     16176     16178
     16171     16176     16173     16174     16171     16176     16173     16175
     16171     16176     16178     16179     16171     16176     16178     16180
     16171     16176     16178     16181     16172     16171     16173     16174
     16172     16171     16173     16175     16172     16171     16173     16176
     16172     16171     16176     16173     16172     16171     16176     16177
     16172     16171     16176     16178     16173     16171     16176     16177
     16173     16171     16176     16178     16173     16176     16178     16179
     16173     16176     16178     16180     16173     16176     16178     16181
     16174     16173     16171     16176     16174     16173     16176     16177
     16174     16173     16176     16178     16175     16173     16171     16176
     16175     16173     16176     16177     16175     16173     16176     16178
     16176     16178     16181     16182     16176     16178     16181     16183
     16176     16178     16181     16184     16177     16176     16178     16179
     16177     16176     16178     16180     16177     16176     16178     16181
     16178     16181     16184     16185     16178     16181     16184     16186
     16178     16181     16184     16187     16179     16178     16181     16182
     16179     16178     16181     16183     16179     16178     16181     16184
     16180     16178     16181     16182     16180     16178     16181     16183
     16180     16178     16181     16184     16181     16184     16187     16188
     16181     16184     16187     16189     16181     16184     16187     16190
     16182     16181     16184     16185     16182     16181     16184     16186
     16182     16181     16184     16187     16183     16181     16184     16185
     16183     16181     16184     16186     16183     16181     16184     16187
     16184     16187     16190     16191     16184     16187     16190     16192
     16184     16187     16190     16193     16185     16184     16187     16188
     16185     16184     16187     16189     16185     16184     16187     16190
     16186     16184     16187     16188     16186     16184     16187     16189
     16186     16184     16187     16190     16187     16190     16193     16194
     16187     16190     16193     16195     16187     16190     16193     16196
     16188     16187     16190     16191     16188     16187     16190     16192
     16188     16187     16190     16193     16189     16187     16190     16191
     16189     16187     16190     16192     16189     16187     16190     16193
     16191     16190     16193     16194     16191     16190     16193     16195
     16191     16190     16193     16196     16192     16190     16193     16194
     16192     16190     16193     16195     16192     16190     16193     16196
     16197     16200     16203     16204     16197     16200     16203     16205
     16197     16200     16203     16206     16198     16197     16200     16201
     16198     16197     16200     16202     16198     16197     16200     16203
     16199     16197     16200     16201     16199     16197     16200     16202
     16199     16197     16200     16203     16200     16203     16206     16207
     16200     16203     16206     16208     16200     16203     16206     16209
     16201     16200     16203     16204     16201     16200     16203     16205
     16201     16200     16203     16206     16202     16200     16203     16204
     16202     16200     16203     16205     16202     16200     16203     16206
     16203     16206     16209     16210     16203     16206     16209     16211
     16203     16206     16209     16212     16204     16203     16206     16207
     16204     16203     16206     16208     16204     16203     16206     16209
     16205     16203     16206     16207     16205     16203     16206     16208
     16205     16203     16206     16209     16206     16209     16212     16213
     16206     16209     16212     16214     16206     16209     16212     16215
     16207     16206     16209     16210     16207     16206     16209     16211
     16207     16206     16209     16212     16208     16206     16209     16210
     16208     16206     16209     16211     16208     16206     16209     16212
     16209     16212     16215     16216     16209     16212     16215     16217
     16209     16212     16215     16218     16210     16209     16212     16213
     16210     16209     16212     16214     16210     16209     16212     16215
     16211     16209     16212     16213     16211     16209     16212     16214
     16211     16209     16212     16215     16212     16215     16218     16219
     16212     16215     16218     16220     16212     16215     16218     16221
     16213     16212     16215     16216     16213     16212     16215     16217
     16213     16212     16215     16218     16214     16212     16215     16216
     16214     16212     16215     16217     16214     16212     16215     16218
     16215     16218     16221     16222     16215     16218     16221     16223
     16215     16218     16221     16224     16216     16215     16218     16219
     16216     16215     16218     16220     16216     16215     16218     16221
     16217     16215     16218     16219     16217     16215     16218     16220
     16217     16215     16218     16221     16218     16221     16224     16225
     16218     16221     16224     16226     16218     16221     16224     16227
     16219     16218     16221     16222     16219     16218     16221     16223
     16219     16218     16221     16224     16220     16218     16221     16222
     16220     16218     16221     16223     16220     16218     16221     16224
     16221     16224     16227     16228     16221     16224     16227     16229
     16221     16224     16227     16230     16222     16221     16224     16225
     16222     16221     16224     16226     16222     16221     16224     16227
     16223     16221     16224     16225     16223     16221     16224     16226
     16223     16221     16224     16227     16224     16227     16230     16231
     16224     16227     16230     16232     16224     16227     16230     16233
     16225     16224     16227     16228     16225     16224     16227     16229
     16225     16224     16227     16230     16226     16224     16227     16228
     16226     16224     16227     16229     16226     16224     16227     16230
     16227     16230     16233     16234     16227     16230     16233     16235
     16227     16230     16233     16236     16228     16227     16230     16231
     16228     16227     16230     16232     16228     16227     16230     16233
     16229     16227     16230     16231     16229     16227     16230     16232
     16229     16227     16230     16233     16230     16233     16236     16237
     16230     16233     16236     16238     16230     16233     16236     16239
     16231     16230     16233     16234     16231     16230     16233     16235
     16231     16230     16233     16236     16232     16230     16233     16234
     16232     16230     16233     16235     16232     16230     16233     16236
     16234     16233     16236     16237     16234     16233     16236     16238
     16234     16233     16236     16239     16235     16233     16236     16237
     16235     16233     16236     16238     16235     16233     16236     16239
     16240     16244     16247     16248     16240     16244     16247     16249
     16240     16244     16247     16254     16241     16240     16244     16245
     16241     16240     16244     16246     16241     16240     16244     16247
     16242     16240     16244     16245     16242     16240     16244     16246
     16242     16240     16244     16247     16243     16240     16244     16245
     16243     16240     16244     16246     16243     16240     16244     16247
     16244     16247     16254     16250     16245     16244     16247     16248
     16245     16244     16247     16249     16245     16244     16247     16254
     16246     16244     16247     16248     16246     16244     16247     16249
     16246     16244     16247     16254     16247     16254     16250     16251
     16247     16254     16250     16252     16247     16254     16250     16253
     16248     16247     16254     16250     16249     16247     16254     16250
     16250     16253     16255     16256     16250     16253     16255     16257
     16250     16253     16255     16258     16251     16250     16253     16255
     16252     16250     16253     16255     16253     16255     16258     16259
     16253     16255     16258     16260     16253     16255     16258     16266
     16254     16250     16253     16255     16255     16258     16260     16261
     16255     16258     16266     16267     16255     16258     16266     16268
     16255     16258     16266     16269     16256     16255     16258     16259
     16256     16255     16258     16260     16256     16255     16258     16266
     16257     16255     16258     16259     16257     16255     16258     16260
     16257     16255     16258     16266     16258     16260     16261     16262
     16258     16260     16261     16263     16258     16266     16269     16270
     16259     16258     16260     16261     16259     16258     16266     16267
     16259     16258     16266     16268     16259     16258     16266     16269
     16260     16258     16266     16267     16260     16258     16266     16268
     16260     16258     16266     16269     16260     16261     16263     16264
     16260     16261     16263     16265     16260     16261     16263     16275
     16261     16260     16258     16266     16261     16263     16275     16276
     16261     16263     16275     16277     16261     16263     16275     16278
     16262     16261     16263     16264     16262     16261     16263     16265
     16262     16261     16263     16275     16263     16275     16278     16279
     16263     16275     16278     16280     16263     16275     16278     16281
     16264     16263     16275     16276     16264     16263     16275     16277
     16264     16263     16275     16278     16265     16263     16275     16276
     16265     16263     16275     16277     16265     16263     16275     16278
     16266     16269     16270     16271     16266     16269     16270     16272
     16267     16266     16269     16270     16268     16266     16269     16270
     16269     16270     16272     16273     16269     16270     16272     16274
     16269     16270     16272     16319     16270     16272     16319     16320
     16270     16272     16319     16321     16270     16272     16319     16322
     16271     16270     16272     16273     16271     16270     16272     16274
     16271     16270     16272     16319     16272     16319     16322     16323
     16272     16319     16322     16324     16272     16319     16322     16325
     16273     16272     16319     16320     16273     16272     16319     16321
     16273     16272     16319     16322     16274     16272     16319     16320
     16274     16272     16319     16321     16274     16272     16319     16322
     16275     16278     16281     16282     16275     16278     16281     16283
     16275     16278     16281     16284     16276     16275     16278     16279
     16276     16275     16278     16280     16276     16275     16278     16281
     16277     16275     16278     16279     16277     16275     16278     16280
     16277     16275     16278     16281     16278     16281     16284     16285
     16278     16281     16284     16286     16278     16281     16284     16287
     16279     16278     16281     16282     16279     16278     16281     16283
     16279     16278     16281     16284     16280     16278     16281     16282
     16280     16278     16281     16283     16280     16278     16281     16284
     16281     16284     16287     16288     16281     16284     16287     16289
     16281     16284     16287     16290     16282     16281     16284     16285
     16282     16281     16284     16286     16282     16281     16284     16287
     16283     16281     16284     16285     16283     16281     16284     16286
     16283     16281     16284     16287     16284     16287     16290     16291
     16284     16287     16290     16292     16284     16287     16290     16293
     16285     16284     16287     16288     16285     16284     16287     16289
     16285     16284     16287     16290     16286     16284     16287     16288
     16286     16284     16287     16289     16286     16284     16287     16290
     16287     16290     16293     16294     16287     16290     16293     16295
     16287     16290     16293     16298     16288     16287     16290     16291
     16288     16287     16290     16292     16288     16287     16290     16293
     16289     16287     16290     16291     16289     16287     16290     16292
     16289     16287     16290     16293     16290     16293     16295     16296
     16290     16293     16295     16297     16290     16293     16295     16298
     16290     16293     16298     16295     16290     16293     16298     16299
     16290     16293     16298     16300     16291     16290     16293     16294
     16291     16290     16293     16295     16291     16290     16293     16298
     16292     16290     16293     16294     16292     16290     16293     16295
     16292     16290     16293     16298     16293     16295     16298     16299
     16293     16295     16298     16300     16293     16298     16295     16296
     16293     16298     16295     16297     16293     16298     16300     16301
     16293     16298     16300     16302     16293     16298     16300     16303
     16294     16293     16295     16296     16294     16293     16295     16297
     16294     16293     16295     16298     16294     16293     16298     16295
     16294     16293     16298     16299     16294     16293     16298     16300
     16295     16293     16298     16299     16295     16293     16298     16300
     16295     16298     16300     16301     16295     16298     16300     16302
     16295     16298     16300     16303     16296     16295     16293     16298
     16296     16295     16298     16299     16296     16295     16298     16300
     16297     16295     16293     16298     16297     16295     16298     16299
     16297     16295     16298     16300     16298     16300     16303     16304
     16298     16300     16303     16305     16298     16300     16303     16306
     16299     16298     16300     16301     16299     16298     16300     16302
     16299     16298     16300     16303     16300     16303     16306     16307
     16300     16303     16306     16308     16300     16303     16306     16309
     16301     16300     16303     16304     16301     16300     16303     16305
     16301     16300     16303     16306     16302     16300     16303     16304
     16302     16300     16303     16305     16302     16300     16303     16306
     16303     16306     16309     16310     16303     16306     16309     16311
     16303     16306     16309     16312     16304     16303     16306     16307
     16304     16303     16306     16308     16304     16303     16306     16309
     16305     16303     16306     16307     16305     16303     16306     16308
     16305     16303     16306     16309     16306     16309     16312     16313
     16306     16309     16312     16314     16306     16309     16312     16315
     16307     16306     16309     16310     16307     16306     16309     16311
     16307     16306     16309     16312     16308     16306     16309     16310
     16308     16306     16309     16311     16308     16306     16309     16312
     16309     16312     16315     16316     16309     16312     16315     16317
     16309     16312     16315     16318     16310     16309     16312     16313
     16310     16309     16312     16314     16310     16309     16312     16315
     16311     16309     16312     16313     16311     16309     16312     16314
     16311     16309     16312     16315     16313     16312     16315     16316
     16313     16312     16315     16317     16313     16312     16315     16318
     16314     16312     16315     16316     16314     16312     16315     16317
     16314     16312     16315     16318     16319     16322     16325     16326
     16319     16322     16325     16327     16319     16322     16325     16328
     16320     16319     16322     16323     16320     16319     16322     16324
     16320     16319     16322     16325     16321     16319     16322     16323
     16321     16319     16322     16324     16321     16319     16322     16325
     16322     16325     16328     16329     16322     16325     16328     16330
     16322     16325     16328     16331     16323     16322     16325     16326
     16323     16322     16325     16327     16323     16322     16325     16328
     16324     16322     16325     16326     16324     16322     16325     16327
     16324     16322     16325     16328     16325     16328     16331     16332
     16325     16328     16331     16333     16325     16328     16331     16334
     16326     16325     16328     16329     16326     16325     16328     16330
     16326     16325     16328     16331     16327     16325     16328     16329
     16327     16325     16328     16330     16327     16325     16328     16331
     16328     16331     16334     16335     16328     16331     16334     16336
     16328     16331     16334     16337     16329     16328     16331     16332
     16329     16328     16331     16333     16329     16328     16331     16334
     16330     16328     16331     16332     16330     16328     16331     16333
     16330     16328     16331     16334     16331     16334     16337     16338
     16331     16334     16337     16339     16331     16334     16337     16340
     16332     16331     16334     16335     16332     16331     16334     16336
     16332     16331     16334     16337     16333     16331     16334     16335
     16333     16331     16334     16336     16333     16331     16334     16337
     16334     16337     16340     16341     16334     16337     16340     16342
     16334     16337     16340     16343     16335     16334     16337     16338
     16335     16334     16337     16339     16335     16334     16337     16340
     16336     16334     16337     16338     16336     16334     16337     16339
     16336     16334     16337     16340     16337     16340     16343     16344
     16337     16340     16343     16345     16337     16340     16343     16346
     16338     16337     16340     16341     16338     16337     16340     16342
     16338     16337     16340     16343     16339     16337     16340     16341
     16339     16337     16340     16342     16339     16337     16340     16343
     16340     16343     16346     16347     16340     16343     16346     16348
     16340     16343     16346     16349     16341     16340     16343     16344
     16341     16340     16343     16345     16341     16340     16343     16346
     16342     16340     16343     16344     16342     16340     16343     16345
     16342     16340     16343     16346     16343     16346     16349     16350
     16343     16346     16349     16351     16343     16346     16349     16352
     16344     16343     16346     16347     16344     16343     16346     16348
     16344     16343     16346     16349     16345     16343     16346     16347
     16345     16343     16346     16348     16345     16343     16346     16349
     16346     16349     16352     16353     16346     16349     16352     16354
     16346     16349     16352     16355     16347     16346     16349     16350
     16347     16346     16349     16351     16347     16346     16349     16352
     16348     16346     16349     16350     16348     16346     16349     16351
     16348     16346     16349     16352     16349     16352     16355     16356
     16349     16352     16355     16357     16349     16352     16355     16358
     16350     16349     16352     16353     16350     16349     16352     16354
     16350     16349     16352     16355     16351     16349     16352     16353
     16351     16349     16352     16354     16351     16349     16352     16355
     16353     16352     16355     16356     16353     16352     16355     16357
     16353     16352     16355     16358     16354     16352     16355     16356
     16354     16352     16355     16357     16354     16352     16355     16358
     16359     16363     16366     16367     16359     16363     16366     16368
     16359     16363     16366     16373     16360     16359     16363     16364
     16360     16359     16363     16365     16360     16359     16363     16366
     16361     16359     16363     16364     16361     16359     16363     16365
     16361     16359     16363     16366     16362     16359     16363     16364
     16362     16359     16363     16365     16362     16359     16363     16366
     16363     16366     16373     16369     16364     16363     16366     16367
     16364     16363     16366     16368     16364     16363     16366     16373
     16365     16363     16366     16367     16365     16363     16366     16368
     16365     16363     16366     16373     16366     16373     16369     16370
     16366     16373     16369     16371     16366     16373     16369     16372
     16367     16366     16373     16369     16368     16366     16373     16369
     16369     16372     16374     16375     16369     16372     16374     16376
     16369     16372     16374     16377     16370     16369     16372     16374
     16371     16369     16372     16374     16372     16374     16377     16378
     16372     16374     16377     16379     16372     16374     16377     16385
     16373     16369     16372     16374     16374     16377     16379     16380
     16374     16377     16385     16386     16374     16377     16385     16387
     16374     16377     16385     16388     16375     16374     16377     16378
     16375     16374     16377     16379     16375     16374     16377     16385
     16376     16374     16377     16378     16376     16374     16377     16379
     16376     16374     16377     16385     16377     16379     16380     16381
     16377     16379     16380     16382     16377     16385     16388     16389
     16378     16377     16379     16380     16378     16377     16385     16386
     16378     16377     16385     16387     16378     16377     16385     16388
     16379     16377     16385     16386     16379     16377     16385     16387
     16379     16377     16385     16388     16379     16380     16382     16383
     16379     16380     16382     16384     16379     16380     16382     16394
     16380     16379     16377     16385     16380     16382     16394     16395
     16380     16382     16394     16396     16380     16382     16394     16397
     16381     16380     16382     16383     16381     16380     16382     16384
     16381     16380     16382     16394     16382     16394     16397     16398
     16382     16394     16397     16399     16382     16394     16397     16400
     16383     16382     16394     16395     16383     16382     16394     16396
     16383     16382     16394     16397     16384     16382     16394     16395
     16384     16382     16394     16396     16384     16382     16394     16397
     16385     16388     16389     16390     16385     16388     16389     16391
     16386     16385     16388     16389     16387     16385     16388     16389
     16388     16389     16391     16392     16388     16389     16391     16393
     16388     16389     16391     16438     16389     16391     16438     16439
     16389     16391     16438     16440     16389     16391     16438     16441
     16390     16389     16391     16392     16390     16389     16391     16393
     16390     16389     16391     16438     16391     16438     16441     16442
     16391     16438     16441     16443     16391     16438     16441     16444
     16392     16391     16438     16439     16392     16391     16438     16440
     16392     16391     16438     16441     16393     16391     16438     16439
     16393     16391     16438     16440     16393     16391     16438     16441
     16394     16397     16400     16401     16394     16397     16400     16402
     16394     16397     16400     16403     16395     16394     16397     16398
     16395     16394     16397     16399     16395     16394     16397     16400
     16396     16394     16397     16398     16396     16394     16397     16399
     16396     16394     16397     16400     16397     16400     16403     16404
     16397     16400     16403     16405     16397     16400     16403     16406
     16398     16397     16400     16401     16398     16397     16400     16402
     16398     16397     16400     16403     16399     16397     16400     16401
     16399     16397     16400     16402     16399     16397     16400     16403
     16400     16403     16406     16407     16400     16403     16406     16408
     16400     16403     16406     16409     16401     16400     16403     16404
     16401     16400     16403     16405     16401     16400     16403     16406
     16402     16400     16403     16404     16402     16400     16403     16405
     16402     16400     16403     16406     16403     16406     16409     16410
     16403     16406     16409     16411     16403     16406     16409     16412
     16404     16403     16406     16407     16404     16403     16406     16408
     16404     16403     16406     16409     16405     16403     16406     16407
     16405     16403     16406     16408     16405     16403     16406     16409
     16406     16409     16412     16413     16406     16409     16412     16414
     16406     16409     16412     16417     16407     16406     16409     16410
     16407     16406     16409     16411     16407     16406     16409     16412
     16408     16406     16409     16410     16408     16406     16409     16411
     16408     16406     16409     16412     16409     16412     16414     16415
     16409     16412     16414     16416     16409     16412     16414     16417
     16409     16412     16417     16414     16409     16412     16417     16418
     16409     16412     16417     16419     16410     16409     16412     16413
     16410     16409     16412     16414     16410     16409     16412     16417
     16411     16409     16412     16413     16411     16409     16412     16414
     16411     16409     16412     16417     16412     16414     16417     16418
     16412     16414     16417     16419     16412     16417     16414     16415
     16412     16417     16414     16416     16412     16417     16419     16420
     16412     16417     16419     16421     16412     16417     16419     16422
     16413     16412     16414     16415     16413     16412     16414     16416
     16413     16412     16414     16417     16413     16412     16417     16414
     16413     16412     16417     16418     16413     16412     16417     16419
     16414     16412     16417     16418     16414     16412     16417     16419
     16414     16417     16419     16420     16414     16417     16419     16421
     16414     16417     16419     16422     16415     16414     16412     16417
     16415     16414     16417     16418     16415     16414     16417     16419
     16416     16414     16412     16417     16416     16414     16417     16418
     16416     16414     16417     16419     16417     16419     16422     16423
     16417     16419     16422     16424     16417     16419     16422     16425
     16418     16417     16419     16420     16418     16417     16419     16421
     16418     16417     16419     16422     16419     16422     16425     16426
     16419     16422     16425     16427     16419     16422     16425     16428
     16420     16419     16422     16423     16420     16419     16422     16424
     16420     16419     16422     16425     16421     16419     16422     16423
     16421     16419     16422     16424     16421     16419     16422     16425
     16422     16425     16428     16429     16422     16425     16428     16430
     16422     16425     16428     16431     16423     16422     16425     16426
     16423     16422     16425     16427     16423     16422     16425     16428
     16424     16422     16425     16426     16424     16422     16425     16427
     16424     16422     16425     16428     16425     16428     16431     16432
     16425     16428     16431     16433     16425     16428     16431     16434
     16426     16425     16428     16429     16426     16425     16428     16430
     16426     16425     16428     16431     16427     16425     16428     16429
     16427     16425     16428     16430     16427     16425     16428     16431
     16428     16431     16434     16435     16428     16431     16434     16436
     16428     16431     16434     16437     16429     16428     16431     16432
     16429     16428     16431     16433     16429     16428     16431     16434
     16430     16428     16431     16432     16430     16428     16431     16433
     16430     16428     16431     16434     16432     16431     16434     16435
     16432     16431     16434     16436     16432     16431     16434     16437
     16433     16431     16434     16435     16433     16431     16434     16436
     16433     16431     16434     16437     16438     16441     16444     16445
     16438     16441     16444     16446     16438     16441     16444     16447
     16439     16438     16441     16442     16439     16438     16441     16443
     16439     16438     16441     16444     16440     16438     16441     16442
     16440     16438     16441     16443     16440     16438     16441     16444
     16441     16444     16447     16448     16441     16444     16447     16449
     16441     16444     16447     16450     16442     16441     16444     16445
     16442     16441     16444     16446     16442     16441     16444     16447
     16443     16441     16444     16445     16443     16441     16444     16446
     16443     16441     16444     16447     16444     16447     16450     16451
     16444     16447     16450     16452     16444     16447     16450     16453
     16445     16444     16447     16448     16445     16444     16447     16449
     16445     16444     16447     16450     16446     16444     16447     16448
     16446     16444     16447     16449     16446     16444     16447     16450
     16447     16450     16453     16454     16447     16450     16453     16455
     16447     16450     16453     16456     16448     16447     16450     16451
     16448     16447     16450     16452     16448     16447     16450     16453
     16449     16447     16450     16451     16449     16447     16450     16452
     16449     16447     16450     16453     16450     16453     16456     16457
     16450     16453     16456     16458     16450     16453     16456     16459
     16451     16450     16453     16454     16451     16450     16453     16455
     16451     16450     16453     16456     16452     16450     16453     16454
     16452     16450     16453     16455     16452     16450     16453     16456
     16453     16456     16459     16460     16453     16456     16459     16461
     16453     16456     16459     16462     16454     16453     16456     16457
     16454     16453     16456     16458     16454     16453     16456     16459
     16455     16453     16456     16457     16455     16453     16456     16458
     16455     16453     16456     16459     16456     16459     16462     16463
     16456     16459     16462     16464     16456     16459     16462     16465
     16457     16456     16459     16460     16457     16456     16459     16461
     16457     16456     16459     16462     16458     16456     16459     16460
     16458     16456     16459     16461     16458     16456     16459     16462
     16459     16462     16465     16466     16459     16462     16465     16467
     16459     16462     16465     16468     16460     16459     16462     16463
     16460     16459     16462     16464     16460     16459     16462     16465
     16461     16459     16462     16463     16461     16459     16462     16464
     16461     16459     16462     16465     16462     16465     16468     16469
     16462     16465     16468     16470     16462     16465     16468     16471
     16463     16462     16465     16466     16463     16462     16465     16467
     16463     16462     16465     16468     16464     16462     16465     16466
     16464     16462     16465     16467     16464     16462     16465     16468
     16465     16468     16471     16472     16465     16468     16471     16473
     16465     16468     16471     16474     16466     16465     16468     16469
     16466     16465     16468     16470     16466     16465     16468     16471
     16467     16465     16468     16469     16467     16465     16468     16470
     16467     16465     16468     16471     16468     16471     16474     16475
     16468     16471     16474     16476     16468     16471     16474     16477
     16469     16468     16471     16472     16469     16468     16471     16473
     16469     16468     16471     16474     16470     16468     16471     16472
     16470     16468     16471     16473     16470     16468     16471     16474
     16471     16474     16477     16478     16471     16474     16477     16479
     16471     16474     16477     16480     16472     16471     16474     16475
     16472     16471     16474     16476     16472     16471     16474     16477
     16473     16471     16474     16475     16473     16471     16474     16476
     16473     16471     16474     16477     16475     16474     16477     16478
     16475     16474     16477     16479     16475     16474     16477     16480
     16476     16474     16477     16478     16476     16474     16477     16479
     16476     16474     16477     16480     16481     16485     16488     16489
     16481     16485     16488     16490     16481     16485     16488     16495
     16482     16481     16485     16486     16482     16481     16485     16487
     16482     16481     16485     16488     16483     16481     16485     16486
     16483     16481     16485     16487     16483     16481     16485     16488
     16484     16481     16485     16486     16484     16481     16485     16487
     16484     16481     16485     16488     16485     16488     16495     16491
     16486     16485     16488     16489     16486     16485     16488     16490
     16486     16485     16488     16495     16487     16485     16488     16489
     16487     16485     16488     16490     16487     16485     16488     16495
     16488     16495     16491     16492     16488     16495     16491     16493
     16488     16495     16491     16494     16489     16488     16495     16491
     16490     16488     16495     16491     16491     16494     16496     16497
     16491     16494     16496     16498     16491     16494     16496     16499
     16492     16491     16494     16496     16493     16491     16494     16496
     16494     16496     16499     16500     16494     16496     16499     16501
     16494     16496     16499     16507     16495     16491     16494     16496
     16496     16499     16501     16502     16496     16499     16507     16508
     16496     16499     16507     16509     16496     16499     16507     16510
     16497     16496     16499     16500     16497     16496     16499     16501
     16497     16496     16499     16507     16498     16496     16499     16500
     16498     16496     16499     16501     16498     16496     16499     16507
     16499     16501     16502     16503     16499     16501     16502     16504
     16499     16507     16510     16511     16500     16499     16501     16502
     16500     16499     16507     16508     16500     16499     16507     16509
     16500     16499     16507     16510     16501     16499     16507     16508
     16501     16499     16507     16509     16501     16499     16507     16510
     16501     16502     16504     16505     16501     16502     16504     16506
     16501     16502     16504     16516     16502     16501     16499     16507
     16502     16504     16516     16517     16502     16504     16516     16518
     16502     16504     16516     16519     16503     16502     16504     16505
     16503     16502     16504     16506     16503     16502     16504     16516
     16504     16516     16519     16520     16504     16516     16519     16521
     16504     16516     16519     16522     16505     16504     16516     16517
     16505     16504     16516     16518     16505     16504     16516     16519
     16506     16504     16516     16517     16506     16504     16516     16518
     16506     16504     16516     16519     16507     16510     16511     16512
     16507     16510     16511     16513     16508     16507     16510     16511
     16509     16507     16510     16511     16510     16511     16513     16514
     16510     16511     16513     16515     16510     16511     16513     16560
     16511     16513     16560     16561     16511     16513     16560     16562
     16511     16513     16560     16563     16512     16511     16513     16514
     16512     16511     16513     16515     16512     16511     16513     16560
     16513     16560     16563     16564     16513     16560     16563     16565
     16513     16560     16563     16566     16514     16513     16560     16561
     16514     16513     16560     16562     16514     16513     16560     16563
     16515     16513     16560     16561     16515     16513     16560     16562
     16515     16513     16560     16563     16516     16519     16522     16523
     16516     16519     16522     16524     16516     16519     16522     16525
     16517     16516     16519     16520     16517     16516     16519     16521
     16517     16516     16519     16522     16518     16516     16519     16520
     16518     16516     16519     16521     16518     16516     16519     16522
     16519     16522     16525     16526     16519     16522     16525     16527
     16519     16522     16525     16528     16520     16519     16522     16523
     16520     16519     16522     16524     16520     16519     16522     16525
     16521     16519     16522     16523     16521     16519     16522     16524
     16521     16519     16522     16525     16522     16525     16528     16529
     16522     16525     16528     16530     16522     16525     16528     16531
     16523     16522     16525     16526     16523     16522     16525     16527
     16523     16522     16525     16528     16524     16522     16525     16526
     16524     16522     16525     16527     16524     16522     16525     16528
     16525     16528     16531     16532     16525     16528     16531     16533
     16525     16528     16531     16534     16526     16525     16528     16529
     16526     16525     16528     16530     16526     16525     16528     16531
     16527     16525     16528     16529     16527     16525     16528     16530
     16527     16525     16528     16531     16528     16531     16534     16535
     16528     16531     16534     16536     16528     16531     16534     16539
     16529     16528     16531     16532     16529     16528     16531     16533
     16529     16528     16531     16534     16530     16528     16531     16532
     16530     16528     16531     16533     16530     16528     16531     16534
     16531     16534     16536     16537     16531     16534     16536     16538
     16531     16534     16536     16539     16531     16534     16539     16536
     16531     16534     16539     16540     16531     16534     16539     16541
     16532     16531     16534     16535     16532     16531     16534     16536
     16532     16531     16534     16539     16533     16531     16534     16535
     16533     16531     16534     16536     16533     16531     16534     16539
     16534     16536     16539     16540     16534     16536     16539     16541
     16534     16539     16536     16537     16534     16539     16536     16538
     16534     16539     16541     16542     16534     16539     16541     16543
     16534     16539     16541     16544     16535     16534     16536     16537
     16535     16534     16536     16538     16535     16534     16536     16539
     16535     16534     16539     16536     16535     16534     16539     16540
     16535     16534     16539     16541     16536     16534     16539     16540
     16536     16534     16539     16541     16536     16539     16541     16542
     16536     16539     16541     16543     16536     16539     16541     16544
     16537     16536     16534     16539     16537     16536     16539     16540
     16537     16536     16539     16541     16538     16536     16534     16539
     16538     16536     16539     16540     16538     16536     16539     16541
     16539     16541     16544     16545     16539     16541     16544     16546
     16539     16541     16544     16547     16540     16539     16541     16542
     16540     16539     16541     16543     16540     16539     16541     16544
     16541     16544     16547     16548     16541     16544     16547     16549
     16541     16544     16547     16550     16542     16541     16544     16545
     16542     16541     16544     16546     16542     16541     16544     16547
     16543     16541     16544     16545     16543     16541     16544     16546
     16543     16541     16544     16547     16544     16547     16550     16551
     16544     16547     16550     16552     16544     16547     16550     16553
     16545     16544     16547     16548     16545     16544     16547     16549
     16545     16544     16547     16550     16546     16544     16547     16548
     16546     16544     16547     16549     16546     16544     16547     16550
     16547     16550     16553     16554     16547     16550     16553     16555
     16547     16550     16553     16556     16548     16547     16550     16551
     16548     16547     16550     16552     16548     16547     16550     16553
     16549     16547     16550     16551     16549     16547     16550     16552
     16549     16547     16550     16553     16550     16553     16556     16557
     16550     16553     16556     16558     16550     16553     16556     16559
     16551     16550     16553     16554     16551     16550     16553     16555
     16551     16550     16553     16556     16552     16550     16553     16554
     16552     16550     16553     16555     16552     16550     16553     16556
     16554     16553     16556     16557     16554     16553     16556     16558
     16554     16553     16556     16559     16555     16553     16556     16557
     16555     16553     16556     16558     16555     16553     16556     16559
     16560     16563     16566     16567     16560     16563     16566     16568
     16560     16563     16566     16569     16561     16560     16563     16564
     16561     16560     16563     16565     16561     16560     16563     16566
     16562     16560     16563     16564     16562     16560     16563     16565
     16562     16560     16563     16566     16563     16566     16569     16570
     16563     16566     16569     16571     16563     16566     16569     16572
     16564     16563     16566     16567     16564     16563     16566     16568
     16564     16563     16566     16569     16565     16563     16566     16567
     16565     16563     16566     16568     16565     16563     16566     16569
     16566     16569     16572     16573     16566     16569     16572     16574
     16566     16569     16572     16575     16567     16566     16569     16570
     16567     16566     16569     16571     16567     16566     16569     16572
     16568     16566     16569     16570     16568     16566     16569     16571
     16568     16566     16569     16572     16569     16572     16575     16576
     16569     16572     16575     16577     16569     16572     16575     16578
     16570     16569     16572     16573     16570     16569     16572     16574
     16570     16569     16572     16575     16571     16569     16572     16573
     16571     16569     16572     16574     16571     16569     16572     16575
     16572     16575     16578     16579     16572     16575     16578     16580
     16572     16575     16578     16581     16573     16572     16575     16576
     16573     16572     16575     16577     16573     16572     16575     16578
     16574     16572     16575     16576     16574     16572     16575     16577
     16574     16572     16575     16578     16575     16578     16581     16582
     16575     16578     16581     16583     16575     16578     16581     16584
     16576     16575     16578     16579     16576     16575     16578     16580
     16576     16575     16578     16581     16577     16575     16578     16579
     16577     16575     16578     16580     16577     16575     16578     16581
     16578     16581     16584     16585     16578     16581     16584     16586
     16578     16581     16584     16587     16579     16578     16581     16582
     16579     16578     16581     16583     16579     16578     16581     16584
     16580     16578     16581     16582     16580     16578     16581     16583
     16580     16578     16581     16584     16581     16584     16587     16588
     16581     16584     16587     16589     16581     16584     16587     16590
     16582     16581     16584     16585     16582     16581     16584     16586
     16582     16581     16584     16587     16583     16581     16584     16585
     16583     16581     16584     16586     16583     16581     16584     16587
     16584     16587     16590     16591     16584     16587     16590     16592
     16584     16587     16590     16593     16585     16584     16587     16588
     16585     16584     16587     16589     16585     16584     16587     16590
     16586     16584     16587     16588     16586     16584     16587     16589
     16586     16584     16587     16590     16587     16590     16593     16594
     16587     16590     16593     16595     16587     16590     16593     16596
     16588     16587     16590     16591     16588     16587     16590     16592
     16588     16587     16590     16593     16589     16587     16590     16591
     16589     16587     16590     16592     16589     16587     16590     16593
     16590     16593     16596     16597     16590     16593     16596     16598
     16590     16593     16596     16599     16591     16590     16593     16594
     16591     16590     16593     16595     16591     16590     16593     16596
     16592     16590     16593     16594     16592     16590     16593     16595
     16592     16590     16593     16596     16594     16593     16596     16597
     16594     16593     16596     16598     16594     16593     16596     16599
     16595     16593     16596     16597     16595     16593     16596     16598
     16595     16593     16596     16599     16600     16604     16607     16608
     16600     16604     16607     16609     16600     16604     16607     16614
     16601     16600     16604     16605     16601     16600     16604     16606
     16601     16600     16604     16607     16602     16600     16604     16605
     16602     16600     16604     16606     16602     16600     16604     16607
     16603     16600     16604     16605     16603     16600     16604     16606
     16603     16600     16604     16607     16604     16607     16614     16610
     16605     16604     16607     16608     16605     16604     16607     16609
     16605     16604     16607     16614     16606     16604     16607     16608
     16606     16604     16607     16609     16606     16604     16607     16614
     16607     16614     16610     16611     16607     16614     16610     16612
     16607     16614     16610     16613     16608     16607     16614     16610
     16609     16607     16614     16610     16610     16613     16615     16616
     16610     16613     16615     16617     16610     16613     16615     16618
     16611     16610     16613     16615     16612     16610     16613     16615
     16613     16615     16618     16619     16613     16615     16618     16620
     16613     16615     16618     16626     16614     16610     16613     16615
     16615     16618     16620     16621     16615     16618     16626     16627
     16615     16618     16626     16628     16615     16618     16626     16629
     16616     16615     16618     16619     16616     16615     16618     16620
     16616     16615     16618     16626     16617     16615     16618     16619
     16617     16615     16618     16620     16617     16615     16618     16626
     16618     16620     16621     16622     16618     16620     16621     16623
     16618     16626     16629     16630     16619     16618     16620     16621
     16619     16618     16626     16627     16619     16618     16626     16628
     16619     16618     16626     16629     16620     16618     16626     16627
     16620     16618     16626     16628     16620     16618     16626     16629
     16620     16621     16623     16624     16620     16621     16623     16625
     16620     16621     16623     16635     16621     16620     16618     16626
     16621     16623     16635     16636     16621     16623     16635     16637
     16621     16623     16635     16638     16622     16621     16623     16624
     16622     16621     16623     16625     16622     16621     16623     16635
     16623     16635     16638     16639     16623     16635     16638     16640
     16623     16635     16638     16641     16624     16623     16635     16636
     16624     16623     16635     16637     16624     16623     16635     16638
     16625     16623     16635     16636     16625     16623     16635     16637
     16625     16623     16635     16638     16626     16629     16630     16631
     16626     16629     16630     16632     16627     16626     16629     16630
     16628     16626     16629     16630     16629     16630     16632     16633
     16629     16630     16632     16634     16629     16630     16632     16676
     16630     16632     16676     16677     16630     16632     16676     16678
     16630     16632     16676     16679     16631     16630     16632     16633
     16631     16630     16632     16634     16631     16630     16632     16676
     16632     16676     16679     16680     16632     16676     16679     16681
     16632     16676     16679     16682     16633     16632     16676     16677
     16633     16632     16676     16678     16633     16632     16676     16679
     16634     16632     16676     16677     16634     16632     16676     16678
     16634     16632     16676     16679     16635     16638     16641     16642
     16635     16638     16641     16643     16635     16638     16641     16644
     16636     16635     16638     16639     16636     16635     16638     16640
     16636     16635     16638     16641     16637     16635     16638     16639
     16637     16635     16638     16640     16637     16635     16638     16641
     16638     16641     16644     16645     16638     16641     16644     16646
     16638     16641     16644     16647     16639     16638     16641     16642
     16639     16638     16641     16643     16639     16638     16641     16644
     16640     16638     16641     16642     16640     16638     16641     16643
     16640     16638     16641     16644     16641     16644     16647     16648
     16641     16644     16647     16649     16641     16644     16647     16650
     16642     16641     16644     16645     16642     16641     16644     16646
     16642     16641     16644     16647     16643     16641     16644     16645
     16643     16641     16644     16646     16643     16641     16644     16647
     16644     16647     16650     16651     16644     16647     16650     16652
     16644     16647     16650     16653     16645     16644     16647     16648
     16645     16644     16647     16649     16645     16644     16647     16650
     16646     16644     16647     16648     16646     16644     16647     16649
     16646     16644     16647     16650     16647     16650     16653     16654
     16647     16650     16653     16655     16648     16647     16650     16651
     16648     16647     16650     16652     16648     16647     16650     16653
     16649     16647     16650     16651     16649     16647     16650     16652
     16649     16647     16650     16653     16650     16653     16655     16656
     16650     16653     16655     16657     16651     16650     16653     16654
     16651     16650     16653     16655     16652     16650     16653     16654
     16652     16650     16653     16655     16653     16655     16657     16658
     16653     16655     16657     16659     16653     16655     16657     16660
     16654     16653     16655     16656     16654     16653     16655     16657
     16655     16657     16660     16661     16655     16657     16660     16662
     16655     16657     16660     16663     16656     16655     16657     16658
     16656     16655     16657     16659     16656     16655     16657     16660
     16657     16660     16663     16664     16657     16660     16663     16665
     16657     16660     16663     16666     16658     16657     16660     16661
     16658     16657     16660     16662     16658     16657     16660     16663
     16659     16657     16660     16661     16659     16657     16660     16662
     16659     16657     16660     16663     16660     16663     16666     16667
     16660     16663     16666     16668     16660     16663     16666     16669
     16661     16660     16663     16664     16661     16660     16663     16665
     16661     16660     16663     16666     16662     16660     16663     16664
     16662     16660     16663     16665     16662     16660     16663     16666
     16663     16666     16669     16670     16663     16666     16669     16671
     16663     16666     16669     16672     16664     16663     16666     16667
     16664     16663     16666     16668     16664     16663     16666     16669
     16665     16663     16666     16667     16665     16663     16666     16668
     16665     16663     16666     16669     16666     16669     16672     16673
     16666     16669     16672     16674     16666     16669     16672     16675
     16667     16666     16669     16670     16667     16666     16669     16671
     16667     16666     16669     16672     16668     16666     16669     16670
     16668     16666     16669     16671     16668     16666     16669     16672
     16670     16669     16672     16673     16670     16669     16672     16674
     16670     16669     16672     16675     16671     16669     16672     16673
     16671     16669     16672     16674     16671     16669     16672     16675
     16676     16679     16682     16683     16676     16679     16682     16684
     16676     16679     16682     16685     16677     16676     16679     16680
     16677     16676     16679     16681     16677     16676     16679     16682
     16678     16676     16679     16680     16678     16676     16679     16681
     16678     16676     16679     16682     16679     16682     16685     16686
     16679     16682     16685     16687     16679     16682     16685     16688
     16680     16679     16682     16683     16680     16679     16682     16684
     16680     16679     16682     16685     16681     16679     16682     16683
     16681     16679     16682     16684     16681     16679     16682     16685
     16682     16685     16688     16689     16682     16685     16688     16690
     16682     16685     16688     16691     16683     16682     16685     16686
     16683     16682     16685     16687     16683     16682     16685     16688
     16684     16682     16685     16686     16684     16682     16685     16687
     16684     16682     16685     16688     16685     16688     16691     16692
     16685     16688     16691     16693     16685     16688     16691     16694
     16686     16685     16688     16689     16686     16685     16688     16690
     16686     16685     16688     16691     16687     16685     16688     16689
     16687     16685     16688     16690     16687     16685     16688     16691
     16688     16691     16694     16695     16688     16691     16694     16696
     16689     16688     16691     16692     16689     16688     16691     16693
     16689     16688     16691     16694     16690     16688     16691     16692
     16690     16688     16691     16693     16690     16688     16691     16694
     16691     16694     16696     16697     16691     16694     16696     16698
     16692     16691     16694     16695     16692     16691     16694     16696
     16693     16691     16694     16695     16693     16691     16694     16696
     16694     16696     16698     16699     16694     16696     16698     16700
     16694     16696     16698     16701     16695     16694     16696     16697
     16695     16694     16696     16698     16696     16698     16701     16702
     16696     16698     16701     16703     16696     16698     16701     16704
     16697     16696     16698     16699     16697     16696     16698     16700
     16697     16696     16698     16701     16698     16701     16704     16705
     16698     16701     16704     16706     16698     16701     16704     16707
     16699     16698     16701     16702     16699     16698     16701     16703
     16699     16698     16701     16704     16700     16698     16701     16702
     16700     16698     16701     16703     16700     16698     16701     16704
     16701     16704     16707     16708     16701     16704     16707     16709
     16701     16704     16707     16710     16702     16701     16704     16705
     16702     16701     16704     16706     16702     16701     16704     16707
     16703     16701     16704     16705     16703     16701     16704     16706
     16703     16701     16704     16707     16704     16707     16710     16711
     16704     16707     16710     16712     16704     16707     16710     16713
     16705     16704     16707     16708     16705     16704     16707     16709
     16705     16704     16707     16710     16706     16704     16707     16708
     16706     16704     16707     16709     16706     16704     16707     16710
     16707     16710     16713     16714     16707     16710     16713     16715
     16707     16710     16713     16716     16708     16707     16710     16711
     16708     16707     16710     16712     16708     16707     16710     16713
     16709     16707     16710     16711     16709     16707     16710     16712
     16709     16707     16710     16713     16710     16713     16716     16717
     16710     16713     16716     16718     16710     16713     16716     16719
     16711     16710     16713     16714     16711     16710     16713     16715
     16711     16710     16713     16716     16712     16710     16713     16714
     16712     16710     16713     16715     16712     16710     16713     16716
     16713     16716     16719     16720     16713     16716     16719     16721
     16713     16716     16719     16722     16714     16713     16716     16717
     16714     16713     16716     16718     16714     16713     16716     16719
     16715     16713     16716     16717     16715     16713     16716     16718
     16715     16713     16716     16719     16717     16716     16719     16720
     16717     16716     16719     16721     16717     16716     16719     16722
     16718     16716     16719     16720     16718     16716     16719     16721
     16718     16716     16719     16722     16723     16727     16730     16731
     16723     16727     16730     16732     16723     16727     16730     16737
     16724     16723     16727     16728     16724     16723     16727     16729
     16724     16723     16727     16730     16725     16723     16727     16728
     16725     16723     16727     16729     16725     16723     16727     16730
     16726     16723     16727     16728     16726     16723     16727     16729
     16726     16723     16727     16730     16727     16730     16737     16733
     16728     16727     16730     16731     16728     16727     16730     16732
     16728     16727     16730     16737     16729     16727     16730     16731
     16729     16727     16730     16732     16729     16727     16730     16737
     16730     16737     16733     16734     16730     16737     16733     16735
     16730     16737     16733     16736     16731     16730     16737     16733
     16732     16730     16737     16733     16733     16736     16738     16739
     16733     16736     16738     16740     16733     16736     16738     16741
     16734     16733     16736     16738     16735     16733     16736     16738
     16736     16738     16741     16742     16736     16738     16741     16743
     16736     16738     16741     16749     16737     16733     16736     16738
     16738     16741     16743     16744     16738     16741     16749     16750
     16738     16741     16749     16751     16738     16741     16749     16752
     16739     16738     16741     16742     16739     16738     16741     16743
     16739     16738     16741     16749     16740     16738     16741     16742
     16740     16738     16741     16743     16740     16738     16741     16749
     16741     16743     16744     16745     16741     16743     16744     16746
     16741     16749     16752     16753     16742     16741     16743     16744
     16742     16741     16749     16750     16742     16741     16749     16751
     16742     16741     16749     16752     16743     16741     16749     16750
     16743     16741     16749     16751     16743     16741     16749     16752
     16743     16744     16746     16747     16743     16744     16746     16748
     16743     16744     16746     16758     16744     16743     16741     16749
     16744     16746     16758     16759     16744     16746     16758     16760
     16744     16746     16758     16761     16745     16744     16746     16747
     16745     16744     16746     16748     16745     16744     16746     16758
     16746     16758     16761     16762     16746     16758     16761     16763
     16746     16758     16761     16764     16747     16746     16758     16759
     16747     16746     16758     16760     16747     16746     16758     16761
     16748     16746     16758     16759     16748     16746     16758     16760
     16748     16746     16758     16761     16749     16752     16753     16754
     16749     16752     16753     16755     16750     16749     16752     16753
     16751     16749     16752     16753     16752     16753     16755     16756
     16752     16753     16755     16757     16752     16753     16755     16805
     16753     16755     16805     16806     16753     16755     16805     16807
     16753     16755     16805     16808     16754     16753     16755     16756
     16754     16753     16755     16757     16754     16753     16755     16805
     16755     16805     16808     16809     16755     16805     16808     16810
     16755     16805     16808     16811     16756     16755     16805     16806
     16756     16755     16805     16807     16756     16755     16805     16808
     16757     16755     16805     16806     16757     16755     16805     16807
     16757     16755     16805     16808     16758     16761     16764     16765
     16758     16761     16764     16766     16758     16761     16764     16767
     16759     16758     16761     16762     16759     16758     16761     16763
     16759     16758     16761     16764     16760     16758     16761     16762
     16760     16758     16761     16763     16760     16758     16761     16764
     16761     16764     16767     16768     16761     16764     16767     16769
     16761     16764     16767     16770     16762     16761     16764     16765
     16762     16761     16764     16766     16762     16761     16764     16767
     16763     16761     16764     16765     16763     16761     16764     16766
     16763     16761     16764     16767     16764     16767     16770     16771
     16764     16767     16770     16772     16764     16767     16770     16773
     16765     16764     16767     16768     16765     16764     16767     16769
     16765     16764     16767     16770     16766     16764     16767     16768
     16766     16764     16767     16769     16766     16764     16767     16770
     16767     16770     16773     16774     16767     16770     16773     16775
     16767     16770     16773     16776     16768     16767     16770     16771
     16768     16767     16770     16772     16768     16767     16770     16773
     16769     16767     16770     16771     16769     16767     16770     16772
     16769     16767     16770     16773     16770     16773     16776     16777
     16770     16773     16776     16778     16771     16770     16773     16774
     16771     16770     16773     16775     16771     16770     16773     16776
     16772     16770     16773     16774     16772     16770     16773     16775
     16772     16770     16773     16776     16773     16776     16778     16779
     16773     16776     16778     16780     16774     16773     16776     16777
     16774     16773     16776     16778     16775     16773     16776     16777
     16775     16773     16776     16778     16776     16778     16780     16781
     16776     16778     16780     16782     16776     16778     16780     16783
     16777     16776     16778     16779     16777     16776     16778     16780
     16778     16780     16783     16784     16778     16780     16783     16785
     16778     16780     16783     16786     16779     16778     16780     16781
     16779     16778     16780     16782     16779     16778     16780     16783
     16780     16783     16786     16787     16780     16783     16786     16788
     16780     16783     16786     16789     16781     16780     16783     16784
     16781     16780     16783     16785     16781     16780     16783     16786
     16782     16780     16783     16784     16782     16780     16783     16785
     16782     16780     16783     16786     16783     16786     16789     16790
     16783     16786     16789     16791     16783     16786     16789     16792
     16784     16783     16786     16787     16784     16783     16786     16788
     16784     16783     16786     16789     16785     16783     16786     16787
     16785     16783     16786     16788     16785     16783     16786     16789
     16786     16789     16792     16793     16786     16789     16792     16794
     16786     16789     16792     16795     16787     16786     16789     16790
     16787     16786     16789     16791     16787     16786     16789     16792
     16788     16786     16789     16790     16788     16786     16789     16791
     16788     16786     16789     16792     16789     16792     16795     16796
     16789     16792     16795     16797     16789     16792     16795     16798
     16790     16789     16792     16793     16790     16789     16792     16794
     16790     16789     16792     16795     16791     16789     16792     16793
     16791     16789     16792     16794     16791     16789     16792     16795
     16792     16795     16798     16799     16792     16795     16798     16800
     16792     16795     16798     16801     16793     16792     16795     16796
     16793     16792     16795     16797     16793     16792     16795     16798
     16794     16792     16795     16796     16794     16792     16795     16797
     16794     16792     16795     16798     16795     16798     16801     16802
     16795     16798     16801     16803     16795     16798     16801     16804
     16796     16795     16798     16799     16796     16795     16798     16800
     16796     16795     16798     16801     16797     16795     16798     16799
     16797     16795     16798     16800     16797     16795     16798     16801
     16799     16798     16801     16802     16799     16798     16801     16803
     16799     16798     16801     16804     16800     16798     16801     16802
     16800     16798     16801     16803     16800     16798     16801     16804
     16805     16808     16811     16812     16805     16808     16811     16813
     16805     16808     16811     16814     16806     16805     16808     16809
     16806     16805     16808     16810     16806     16805     16808     16811
     16807     16805     16808     16809     16807     16805     16808     16810
     16807     16805     16808     16811     16808     16811     16814     16815
     16808     16811     16814     16816     16808     16811     16814     16817
     16809     16808     16811     16812     16809     16808     16811     16813
     16809     16808     16811     16814     16810     16808     16811     16812
     16810     16808     16811     16813     16810     16808     16811     16814
     16811     16814     16817     16818     16811     16814     16817     16819
     16811     16814     16817     16820     16812     16811     16814     16815
     16812     16811     16814     16816     16812     16811     16814     16817
     16813     16811     16814     16815     16813     16811     16814     16816
     16813     16811     16814     16817     16814     16817     16820     16821
     16814     16817     16820     16822     16814     16817     16820     16823
     16815     16814     16817     16818     16815     16814     16817     16819
     16815     16814     16817     16820     16816     16814     16817     16818
     16816     16814     16817     16819     16816     16814     16817     16820
     16817     16820     16823     16824     16817     16820     16823     16825
     16817     16820     16823     16826     16818     16817     16820     16821
     16818     16817     16820     16822     16818     16817     16820     16823
     16819     16817     16820     16821     16819     16817     16820     16822
     16819     16817     16820     16823     16820     16823     16826     16827
     16820     16823     16826     16828     16820     16823     16826     16829
     16821     16820     16823     16824     16821     16820     16823     16825
     16821     16820     16823     16826     16822     16820     16823     16824
     16822     16820     16823     16825     16822     16820     16823     16826
     16823     16826     16829     16830     16823     16826     16829     16831
     16823     16826     16829     16832     16824     16823     16826     16827
     16824     16823     16826     16828     16824     16823     16826     16829
     16825     16823     16826     16827     16825     16823     16826     16828
     16825     16823     16826     16829     16826     16829     16832     16833
     16826     16829     16832     16834     16826     16829     16832     16835
     16827     16826     16829     16830     16827     16826     16829     16831
     16827     16826     16829     16832     16828     16826     16829     16830
     16828     16826     16829     16831     16828     16826     16829     16832
     16829     16832     16835     16836     16829     16832     16835     16837
     16829     16832     16835     16838     16830     16829     16832     16833
     16830     16829     16832     16834     16830     16829     16832     16835
     16831     16829     16832     16833     16831     16829     16832     16834
     16831     16829     16832     16835     16832     16835     16838     16839
     16832     16835     16838     16840     16832     16835     16838     16841
     16833     16832     16835     16836     16833     16832     16835     16837
     16833     16832     16835     16838     16834     16832     16835     16836
     16834     16832     16835     16837     16834     16832     16835     16838
     16835     16838     16841     16842     16835     16838     16841     16843
     16835     16838     16841     16844     16836     16835     16838     16839
     16836     16835     16838     16840     16836     16835     16838     16841
     16837     16835     16838     16839     16837     16835     16838     16840
     16837     16835     16838     16841     16838     16841     16844     16845
     16838     16841     16844     16846     16838     16841     16844     16847
     16839     16838     16841     16842     16839     16838     16841     16843
     16839     16838     16841     16844     16840     16838     16841     16842
     16840     16838     16841     16843     16840     16838     16841     16844
     16842     16841     16844     16845     16842     16841     16844     16846
     16842     16841     16844     16847     16843     16841     16844     16845
     16843     16841     16844     16846     16843     16841     16844     16847
     16848     16852     16855     16856     16848     16852     16855     16857
     16848     16852     16855     16862     16849     16848     16852     16853
     16849     16848     16852     16854     16849     16848     16852     16855
     16850     16848     16852     16853     16850     16848     16852     16854
     16850     16848     16852     16855     16851     16848     16852     16853
     16851     16848     16852     16854     16851     16848     16852     16855
     16852     16855     16862     16858     16853     16852     16855     16856
     16853     16852     16855     16857     16853     16852     16855     16862
     16854     16852     16855     16856     16854     16852     16855     16857
     16854     16852     16855     16862     16855     16862     16858     16859
     16855     16862     16858     16860     16855     16862     16858     16861
     16856     16855     16862     16858     16857     16855     16862     16858
     16858     16861     16863     16864     16858     16861     16863     16865
     16858     16861     16863     16866     16859     16858     16861     16863
     16860     16858     16861     16863     16861     16863     16866     16867
     16861     16863     16866     16868     16861     16863     16866     16874
     16862     16858     16861     16863     16863     16866     16868     16869
     16863     16866     16874     16875     16863     16866     16874     16876
     16863     16866     16874     16877     16864     16863     16866     16867
     16864     16863     16866     16868     16864     16863     16866     16874
     16865     16863     16866     16867     16865     16863     16866     16868
     16865     16863     16866     16874     16866     16868     16869     16870
     16866     16868     16869     16871     16866     16874     16877     16878
     16867     16866     16868     16869     16867     16866     16874     16875
     16867     16866     16874     16876     16867     16866     16874     16877
     16868     16866     16874     16875     16868     16866     16874     16876
     16868     16866     16874     16877     16868     16869     16871     16872
     16868     16869     16871     16873     16868     16869     16871     16883
     16869     16868     16866     16874     16869     16871     16883     16884
     16869     16871     16883     16885     16869     16871     16883     16886
     16870     16869     16871     16872     16870     16869     16871     16873
     16870     16869     16871     16883     16871     16883     16886     16887
     16871     16883     16886     16888     16871     16883     16886     16889
     16872     16871     16883     16884     16872     16871     16883     16885
     16872     16871     16883     16886     16873     16871     16883     16884
     16873     16871     16883     16885     16873     16871     16883     16886
     16874     16877     16878     16879     16874     16877     16878     16880
     16875     16874     16877     16878     16876     16874     16877     16878
     16877     16878     16880     16881     16877     16878     16880     16882
     16877     16878     16880     16924     16878     16880     16924     16925
     16878     16880     16924     16926     16878     16880     16924     16927
     16879     16878     16880     16881     16879     16878     16880     16882
     16879     16878     16880     16924     16880     16924     16927     16928
     16880     16924     16927     16929     16880     16924     16927     16930
     16881     16880     16924     16925     16881     16880     16924     16926
     16881     16880     16924     16927     16882     16880     16924     16925
     16882     16880     16924     16926     16882     16880     16924     16927
     16883     16886     16889     16890     16883     16886     16889     16891
     16883     16886     16889     16892     16884     16883     16886     16887
     16884     16883     16886     16888     16884     16883     16886     16889
     16885     16883     16886     16887     16885     16883     16886     16888
     16885     16883     16886     16889     16886     16889     16892     16893
     16886     16889     16892     16894     16886     16889     16892     16895
     16887     16886     16889     16890     16887     16886     16889     16891
     16887     16886     16889     16892     16888     16886     16889     16890
     16888     16886     16889     16891     16888     16886     16889     16892
     16889     16892     16895     16896     16889     16892     16895     16897
     16889     16892     16895     16898     16890     16889     16892     16893
     16890     16889     16892     16894     16890     16889     16892     16895
     16891     16889     16892     16893     16891     16889     16892     16894
     16891     16889     16892     16895     16892     16895     16898     16899
     16892     16895     16898     16900     16892     16895     16898     16901
     16893     16892     16895     16896     16893     16892     16895     16897
     16893     16892     16895     16898     16894     16892     16895     16896
     16894     16892     16895     16897     16894     16892     16895     16898
     16895     16898     16901     16902     16895     16898     16901     16903
     16896     16895     16898     16899     16896     16895     16898     16900
     16896     16895     16898     16901     16897     16895     16898     16899
     16897     16895     16898     16900     16897     16895     16898     16901
     16898     16901     16903     16904     16898     16901     16903     16905
     16899     16898     16901     16902     16899     16898     16901     16903
     16900     16898     16901     16902     16900     16898     16901     16903
     16901     16903     16905     16906     16901     16903     16905     16907
     16901     16903     16905     16908     16902     16901     16903     16904
     16902     16901     16903     16905     16903     16905     16908     16909
     16903     16905     16908     16910     16903     16905     16908     16911
     16904     16903     16905     16906     16904     16903     16905     16907
     16904     16903     16905     16908     16905     16908     16911     16912
     16905     16908     16911     16913     16905     16908     16911     16914
     16906     16905     16908     16909     16906     16905     16908     16910
     16906     16905     16908     16911     16907     16905     16908     16909
     16907     16905     16908     16910     16907     16905     16908     16911
     16908     16911     16914     16915     16908     16911     16914     16916
     16908     16911     16914     16917     16909     16908     16911     16912
     16909     16908     16911     16913     16909     16908     16911     16914
     16910     16908     16911     16912     16910     16908     16911     16913
     16910     16908     16911     16914     16911     16914     16917     16918
     16911     16914     16917     16919     16911     16914     16917     16920
     16912     16911     16914     16915     16912     16911     16914     16916
     16912     16911     16914     16917     16913     16911     16914     16915
     16913     16911     16914     16916     16913     16911     16914     16917
     16914     16917     16920     16921     16914     16917     16920     16922
     16914     16917     16920     16923     16915     16914     16917     16918
     16915     16914     16917     16919     16915     16914     16917     16920
     16916     16914     16917     16918     16916     16914     16917     16919
     16916     16914     16917     16920     16918     16917     16920     16921
     16918     16917     16920     16922     16918     16917     16920     16923
     16919     16917     16920     16921     16919     16917     16920     16922
     16919     16917     16920     16923     16924     16927     16930     16931
     16924     16927     16930     16932     16924     16927     16930     16933
     16925     16924     16927     16928     16925     16924     16927     16929
     16925     16924     16927     16930     16926     16924     16927     16928
     16926     16924     16927     16929     16926     16924     16927     16930
     16927     16930     16933     16934     16927     16930     16933     16935
     16927     16930     16933     16936     16928     16927     16930     16931
     16928     16927     16930     16932     16928     16927     16930     16933
     16929     16927     16930     16931     16929     16927     16930     16932
     16929     16927     16930     16933     16930     16933     16936     16937
     16930     16933     16936     16938     16930     16933     16936     16939
     16931     16930     16933     16934     16931     16930     16933     16935
     16931     16930     16933     16936     16932     16930     16933     16934
     16932     16930     16933     16935     16932     16930     16933     16936
     16933     16936     16939     16940     16933     16936     16939     16941
     16933     16936     16939     16942     16934     16933     16936     16937
     16934     16933     16936     16938     16934     16933     16936     16939
     16935     16933     16936     16937     16935     16933     16936     16938
     16935     16933     16936     16939     16936     16939     16942     16943
     16936     16939     16942     16944     16937     16936     16939     16940
     16937     16936     16939     16941     16937     16936     16939     16942
     16938     16936     16939     16940     16938     16936     16939     16941
     16938     16936     16939     16942     16939     16942     16944     16945
     16939     16942     16944     16946     16940     16939     16942     16943
     16940     16939     16942     16944     16941     16939     16942     16943
     16941     16939     16942     16944     16942     16944     16946     16947
     16942     16944     16946     16948     16942     16944     16946     16949
     16943     16942     16944     16945     16943     16942     16944     16946
     16944     16946     16949     16950     16944     16946     16949     16951
     16944     16946     16949     16952     16945     16944     16946     16947
     16945     16944     16946     16948     16945     16944     16946     16949
     16946     16949     16952     16953     16946     16949     16952     16954
     16946     16949     16952     16955     16947     16946     16949     16950
     16947     16946     16949     16951     16947     16946     16949     16952
     16948     16946     16949     16950     16948     16946     16949     16951
     16948     16946     16949     16952     16949     16952     16955     16956
     16949     16952     16955     16957     16949     16952     16955     16958
     16950     16949     16952     16953     16950     16949     16952     16954
     16950     16949     16952     16955     16951     16949     16952     16953
     16951     16949     16952     16954     16951     16949     16952     16955
     16952     16955     16958     16959     16952     16955     16958     16960
     16952     16955     16958     16961     16953     16952     16955     16956
     16953     16952     16955     16957     16953     16952     16955     16958
     16954     16952     16955     16956     16954     16952     16955     16957
     16954     16952     16955     16958     16955     16958     16961     16962
     16955     16958     16961     16963     16955     16958     16961     16964
     16956     16955     16958     16959     16956     16955     16958     16960
     16956     16955     16958     16961     16957     16955     16958     16959
     16957     16955     16958     16960     16957     16955     16958     16961
     16958     16961     16964     16965     16958     16961     16964     16966
     16958     16961     16964     16967     16959     16958     16961     16962
     16959     16958     16961     16963     16959     16958     16961     16964
     16960     16958     16961     16962     16960     16958     16961     16963
     16960     16958     16961     16964     16961     16964     16967     16968
     16961     16964     16967     16969     16961     16964     16967     16970
     16962     16961     16964     16965     16962     16961     16964     16966
     16962     16961     16964     16967     16963     16961     16964     16965
     16963     16961     16964     16966     16963     16961     16964     16967
     16965     16964     16967     16968     16965     16964     16967     16969
     16965     16964     16967     16970     16966     16964     16967     16968
     16966     16964     16967     16969     16966     16964     16967     16970
     16971     16975     16978     16979     16971     16975     16978     16980
     16971     16975     16978     16985     16972     16971     16975     16976
     16972     16971     16975     16977     16972     16971     16975     16978
     16973     16971     16975     16976     16973     16971     16975     16977
     16973     16971     16975     16978     16974     16971     16975     16976
     16974     16971     16975     16977     16974     16971     16975     16978
     16975     16978     16985     16981     16976     16975     16978     16979
     16976     16975     16978     16980     16976     16975     16978     16985
     16977     16975     16978     16979     16977     16975     16978     16980
     16977     16975     16978     16985     16978     16985     16981     16982
     16978     16985     16981     16983     16978     16985     16981     16984
     16979     16978     16985     16981     16980     16978     16985     16981
     16981     16984     16986     16987     16981     16984     16986     16988
     16981     16984     16986     16989     16982     16981     16984     16986
     16983     16981     16984     16986     16984     16986     16989     16990
     16984     16986     16989     16991     16984     16986     16989     16997
     16985     16981     16984     16986     16986     16989     16991     16992
     16986     16989     16997     16998     16986     16989     16997     16999
     16986     16989     16997     17000     16987     16986     16989     16990
     16987     16986     16989     16991     16987     16986     16989     16997
     16988     16986     16989     16990     16988     16986     16989     16991
     16988     16986     16989     16997     16989     16991     16992     16993
     16989     16991     16992     16994     16989     16997     17000     17001
     16990     16989     16991     16992     16990     16989     16997     16998
     16990     16989     16997     16999     16990     16989     16997     17000
     16991     16989     16997     16998     16991     16989     16997     16999
     16991     16989     16997     17000     16991     16992     16994     16995
     16991     16992     16994     16996     16991     16992     16994     17006
     16992     16991     16989     16997     16992     16994     17006     17007
     16992     16994     17006     17008     16992     16994     17006     17009
     16993     16992     16994     16995     16993     16992     16994     16996
     16993     16992     16994     17006     16994     17006     17009     17010
     16994     17006     17009     17011     16994     17006     17009     17012
     16995     16994     17006     17007     16995     16994     17006     17008
     16995     16994     17006     17009     16996     16994     17006     17007
     16996     16994     17006     17008     16996     16994     17006     17009
     16997     17000     17001     17002     16997     17000     17001     17003
     16998     16997     17000     17001     16999     16997     17000     17001
     17000     17001     17003     17004     17000     17001     17003     17005
     17000     17001     17003     17050     17001     17003     17050     17051
     17001     17003     17050     17052     17001     17003     17050     17053
     17002     17001     17003     17004     17002     17001     17003     17005
     17002     17001     17003     17050     17003     17050     17053     17054
     17003     17050     17053     17055     17003     17050     17053     17056
     17004     17003     17050     17051     17004     17003     17050     17052
     17004     17003     17050     17053     17005     17003     17050     17051
     17005     17003     17050     17052     17005     17003     17050     17053
     17006     17009     17012     17013     17006     17009     17012     17014
     17006     17009     17012     17015     17007     17006     17009     17010
     17007     17006     17009     17011     17007     17006     17009     17012
     17008     17006     17009     17010     17008     17006     17009     17011
     17008     17006     17009     17012     17009     17012     17015     17016
     17009     17012     17015     17017     17009     17012     17015     17018
     17010     17009     17012     17013     17010     17009     17012     17014
     17010     17009     17012     17015     17011     17009     17012     17013
     17011     17009     17012     17014     17011     17009     17012     17015
     17012     17015     17018     17019     17012     17015     17018     17020
     17012     17015     17018     17021     17013     17012     17015     17016
     17013     17012     17015     17017     17013     17012     17015     17018
     17014     17012     17015     17016     17014     17012     17015     17017
     17014     17012     17015     17018     17015     17018     17021     17022
     17015     17018     17021     17023     17015     17018     17021     17024
     17016     17015     17018     17019     17016     17015     17018     17020
     17016     17015     17018     17021     17017     17015     17018     17019
     17017     17015     17018     17020     17017     17015     17018     17021
     17018     17021     17024     17025     17018     17021     17024     17026
     17018     17021     17024     17029     17019     17018     17021     17022
     17019     17018     17021     17023     17019     17018     17021     17024
     17020     17018     17021     17022     17020     17018     17021     17023
     17020     17018     17021     17024     17021     17024     17026     17027
     17021     17024     17026     17028     17021     17024     17026     17029
     17021     17024     17029     17026     17021     17024     17029     17030
     17021     17024     17029     17031     17022     17021     17024     17025
     17022     17021     17024     17026     17022     17021     17024     17029
     17023     17021     17024     17025     17023     17021     17024     17026
     17023     17021     17024     17029     17024     17026     17029     17030
     17024     17026     17029     17031     17024     17029     17026     17027
     17024     17029     17026     17028     17024     17029     17031     17032
     17024     17029     17031     17033     17024     17029     17031     17034
     17025     17024     17026     17027     17025     17024     17026     17028
     17025     17024     17026     17029     17025     17024     17029     17026
     17025     17024     17029     17030     17025     17024     17029     17031
     17026     17024     17029     17030     17026     17024     17029     17031
     17026     17029     17031     17032     17026     17029     17031     17033
     17026     17029     17031     17034     17027     17026     17024     17029
     17027     17026     17029     17030     17027     17026     17029     17031
     17028     17026     17024     17029     17028     17026     17029     17030
     17028     17026     17029     17031     17029     17031     17034     17035
     17029     17031     17034     17036     17029     17031     17034     17037
     17030     17029     17031     17032     17030     17029     17031     17033
     17030     17029     17031     17034     17031     17034     17037     17038
     17031     17034     17037     17039     17031     17034     17037     17040
     17032     17031     17034     17035     17032     17031     17034     17036
     17032     17031     17034     17037     17033     17031     17034     17035
     17033     17031     17034     17036     17033     17031     17034     17037
     17034     17037     17040     17041     17034     17037     17040     17042
     17034     17037     17040     17043     17035     17034     17037     17038
     17035     17034     17037     17039     17035     17034     17037     17040
     17036     17034     17037     17038     17036     17034     17037     17039
     17036     17034     17037     17040     17037     17040     17043     17044
     17037     17040     17043     17045     17037     17040     17043     17046
     17038     17037     17040     17041     17038     17037     17040     17042
     17038     17037     17040     17043     17039     17037     17040     17041
     17039     17037     17040     17042     17039     17037     17040     17043
     17040     17043     17046     17047     17040     17043     17046     17048
     17040     17043     17046     17049     17041     17040     17043     17044
     17041     17040     17043     17045     17041     17040     17043     17046
     17042     17040     17043     17044     17042     17040     17043     17045
     17042     17040     17043     17046     17044     17043     17046     17047
     17044     17043     17046     17048     17044     17043     17046     17049
     17045     17043     17046     17047     17045     17043     17046     17048
     17045     17043     17046     17049     17050     17053     17056     17057
     17050     17053     17056     17058     17050     17053     17056     17059
     17051     17050     17053     17054     17051     17050     17053     17055
     17051     17050     17053     17056     17052     17050     17053     17054
     17052     17050     17053     17055     17052     17050     17053     17056
     17053     17056     17059     17060     17053     17056     17059     17061
     17053     17056     17059     17062     17054     17053     17056     17057
     17054     17053     17056     17058     17054     17053     17056     17059
     17055     17053     17056     17057     17055     17053     17056     17058
     17055     17053     17056     17059     17056     17059     17062     17063
     17056     17059     17062     17064     17056     17059     17062     17065
     17057     17056     17059     17060     17057     17056     17059     17061
     17057     17056     17059     17062     17058     17056     17059     17060
     17058     17056     17059     17061     17058     17056     17059     17062
     17059     17062     17065     17066     17059     17062     17065     17067
     17059     17062     17065     17068     17060     17059     17062     17063
     17060     17059     17062     17064     17060     17059     17062     17065
     17061     17059     17062     17063     17061     17059     17062     17064
     17061     17059     17062     17065     17062     17065     17068     17069
     17062     17065     17068     17070     17062     17065     17068     17071
     17063     17062     17065     17066     17063     17062     17065     17067
     17063     17062     17065     17068     17064     17062     17065     17066
     17064     17062     17065     17067     17064     17062     17065     17068
     17065     17068     17071     17072     17065     17068     17071     17073
     17065     17068     17071     17074     17066     17065     17068     17069
     17066     17065     17068     17070     17066     17065     17068     17071
     17067     17065     17068     17069     17067     17065     17068     17070
     17067     17065     17068     17071     17068     17071     17074     17075
     17068     17071     17074     17076     17068     17071     17074     17077
     17069     17068     17071     17072     17069     17068     17071     17073
     17069     17068     17071     17074     17070     17068     17071     17072
     17070     17068     17071     17073     17070     17068     17071     17074
     17071     17074     17077     17078     17071     17074     17077     17079
     17071     17074     17077     17080     17072     17071     17074     17075
     17072     17071     17074     17076     17072     17071     17074     17077
     17073     17071     17074     17075     17073     17071     17074     17076
     17073     17071     17074     17077     17074     17077     17080     17081
     17074     17077     17080     17082     17074     17077     17080     17083
     17075     17074     17077     17078     17075     17074     17077     17079
     17075     17074     17077     17080     17076     17074     17077     17078
     17076     17074     17077     17079     17076     17074     17077     17080
     17077     17080     17083     17084     17077     17080     17083     17085
     17077     17080     17083     17086     17078     17077     17080     17081
     17078     17077     17080     17082     17078     17077     17080     17083
     17079     17077     17080     17081     17079     17077     17080     17082
     17079     17077     17080     17083     17080     17083     17086     17087
     17080     17083     17086     17088     17080     17083     17086     17089
     17081     17080     17083     17084     17081     17080     17083     17085
     17081     17080     17083     17086     17082     17080     17083     17084
     17082     17080     17083     17085     17082     17080     17083     17086
     17083     17086     17089     17090     17083     17086     17089     17091
     17083     17086     17089     17092     17084     17083     17086     17087
     17084     17083     17086     17088     17084     17083     17086     17089
     17085     17083     17086     17087     17085     17083     17086     17088
     17085     17083     17086     17089     17087     17086     17089     17090
     17087     17086     17089     17091     17087     17086     17089     17092
     17088     17086     17089     17090     17088     17086     17089     17091
     17088     17086     17089     17092     17093     17097     17100     17101
     17093     17097     17100     17102     17093     17097     17100     17107
     17094     17093     17097     17098     17094     17093     17097     17099
     17094     17093     17097     17100     17095     17093     17097     17098
     17095     17093     17097     17099     17095     17093     17097     17100
     17096     17093     17097     17098     17096     17093     17097     17099
     17096     17093     17097     17100     17097     17100     17107     17103
     17098     17097     17100     17101     17098     17097     17100     17102
     17098     17097     17100     17107     17099     17097     17100     17101
     17099     17097     17100     17102     17099     17097     17100     17107
     17100     17107     17103     17104     17100     17107     17103     17105
     17100     17107     17103     17106     17101     17100     17107     17103
     17102     17100     17107     17103     17103     17106     17108     17109
     17103     17106     17108     17110     17103     17106     17108     17111
     17104     17103     17106     17108     17105     17103     17106     17108
     17106     17108     17111     17112     17106     17108     17111     17113
     17106     17108     17111     17119     17107     17103     17106     17108
     17108     17111     17113     17114     17108     17111     17119     17120
     17108     17111     17119     17121     17108     17111     17119     17122
     17109     17108     17111     17112     17109     17108     17111     17113
     17109     17108     17111     17119     17110     17108     17111     17112
     17110     17108     17111     17113     17110     17108     17111     17119
     17111     17113     17114     17115     17111     17113     17114     17116
     17111     17119     17122     17123     17112     17111     17113     17114
     17112     17111     17119     17120     17112     17111     17119     17121
     17112     17111     17119     17122     17113     17111     17119     17120
     17113     17111     17119     17121     17113     17111     17119     17122
     17113     17114     17116     17117     17113     17114     17116     17118
     17113     17114     17116     17128     17114     17113     17111     17119
     17114     17116     17128     17129     17114     17116     17128     17130
     17114     17116     17128     17131     17115     17114     17116     17117
     17115     17114     17116     17118     17115     17114     17116     17128
     17116     17128     17131     17132     17116     17128     17131     17133
     17116     17128     17131     17134     17117     17116     17128     17129
     17117     17116     17128     17130     17117     17116     17128     17131
     17118     17116     17128     17129     17118     17116     17128     17130
     17118     17116     17128     17131     17119     17122     17123     17124
     17119     17122     17123     17125     17120     17119     17122     17123
     17121     17119     17122     17123     17122     17123     17125     17126
     17122     17123     17125     17127     17122     17123     17125     17175
     17123     17125     17175     17176     17123     17125     17175     17177
     17123     17125     17175     17178     17124     17123     17125     17126
     17124     17123     17125     17127     17124     17123     17125     17175
     17125     17175     17178     17179     17125     17175     17178     17180
     17125     17175     17178     17181     17126     17125     17175     17176
     17126     17125     17175     17177     17126     17125     17175     17178
     17127     17125     17175     17176     17127     17125     17175     17177
     17127     17125     17175     17178     17128     17131     17134     17135
     17128     17131     17134     17136     17128     17131     17134     17137
     17129     17128     17131     17132     17129     17128     17131     17133
     17129     17128     17131     17134     17130     17128     17131     17132
     17130     17128     17131     17133     17130     17128     17131     17134
     17131     17134     17137     17138     17131     17134     17137     17139
     17131     17134     17137     17140     17132     17131     17134     17135
     17132     17131     17134     17136     17132     17131     17134     17137
     17133     17131     17134     17135     17133     17131     17134     17136
     17133     17131     17134     17137     17134     17137     17140     17141
     17134     17137     17140     17142     17134     17137     17140     17143
     17135     17134     17137     17138     17135     17134     17137     17139
     17135     17134     17137     17140     17136     17134     17137     17138
     17136     17134     17137     17139     17136     17134     17137     17140
     17137     17140     17143     17144     17137     17140     17143     17145
     17137     17140     17143     17146     17138     17137     17140     17141
     17138     17137     17140     17142     17138     17137     17140     17143
     17139     17137     17140     17141     17139     17137     17140     17142
     17139     17137     17140     17143     17140     17143     17146     17147
     17140     17143     17146     17148     17141     17140     17143     17144
     17141     17140     17143     17145     17141     17140     17143     17146
     17142     17140     17143     17144     17142     17140     17143     17145
     17142     17140     17143     17146     17143     17146     17148     17149
     17143     17146     17148     17150     17144     17143     17146     17147
     17144     17143     17146     17148     17145     17143     17146     17147
     17145     17143     17146     17148     17146     17148     17150     17151
     17146     17148     17150     17152     17146     17148     17150     17153
     17147     17146     17148     17149     17147     17146     17148     17150
     17148     17150     17153     17154     17148     17150     17153     17155
     17148     17150     17153     17156     17149     17148     17150     17151
     17149     17148     17150     17152     17149     17148     17150     17153
     17150     17153     17156     17157     17150     17153     17156     17158
     17150     17153     17156     17159     17151     17150     17153     17154
     17151     17150     17153     17155     17151     17150     17153     17156
     17152     17150     17153     17154     17152     17150     17153     17155
     17152     17150     17153     17156     17153     17156     17159     17160
     17153     17156     17159     17161     17153     17156     17159     17162
     17154     17153     17156     17157     17154     17153     17156     17158
     17154     17153     17156     17159     17155     17153     17156     17157
     17155     17153     17156     17158     17155     17153     17156     17159
     17156     17159     17162     17163     17156     17159     17162     17164
     17156     17159     17162     17165     17157     17156     17159     17160
     17157     17156     17159     17161     17157     17156     17159     17162
     17158     17156     17159     17160     17158     17156     17159     17161
     17158     17156     17159     17162     17159     17162     17165     17166
     17159     17162     17165     17167     17159     17162     17165     17168
     17160     17159     17162     17163     17160     17159     17162     17164
     17160     17159     17162     17165     17161     17159     17162     17163
     17161     17159     17162     17164     17161     17159     17162     17165
     17162     17165     17168     17169     17162     17165     17168     17170
     17162     17165     17168     17171     17163     17162     17165     17166
     17163     17162     17165     17167     17163     17162     17165     17168
     17164     17162     17165     17166     17164     17162     17165     17167
     17164     17162     17165     17168     17165     17168     17171     17172
     17165     17168     17171     17173     17165     17168     17171     17174
     17166     17165     17168     17169     17166     17165     17168     17170
     17166     17165     17168     17171     17167     17165     17168     17169
     17167     17165     17168     17170     17167     17165     17168     17171
     17169     17168     17171     17172     17169     17168     17171     17173
     17169     17168     17171     17174     17170     17168     17171     17172
     17170     17168     17171     17173     17170     17168     17171     17174
     17175     17178     17181     17182     17175     17178     17181     17183
     17175     17178     17181     17184     17176     17175     17178     17179
     17176     17175     17178     17180     17176     17175     17178     17181
     17177     17175     17178     17179     17177     17175     17178     17180
     17177     17175     17178     17181     17178     17181     17184     17185
     17178     17181     17184     17186     17178     17181     17184     17187
     17179     17178     17181     17182     17179     17178     17181     17183
     17179     17178     17181     17184     17180     17178     17181     17182
     17180     17178     17181     17183     17180     17178     17181     17184
     17181     17184     17187     17188     17181     17184     17187     17189
     17181     17184     17187     17190     17182     17181     17184     17185
     17182     17181     17184     17186     17182     17181     17184     17187
     17183     17181     17184     17185     17183     17181     17184     17186
     17183     17181     17184     17187     17184     17187     17190     17191
     17184     17187     17190     17192     17184     17187     17190     17193
     17185     17184     17187     17188     17185     17184     17187     17189
     17185     17184     17187     17190     17186     17184     17187     17188
     17186     17184     17187     17189     17186     17184     17187     17190
     17187     17190     17193     17194     17187     17190     17193     17195
     17187     17190     17193     17196     17188     17187     17190     17191
     17188     17187     17190     17192     17188     17187     17190     17193
     17189     17187     17190     17191     17189     17187     17190     17192
     17189     17187     17190     17193     17190     17193     17196     17197
     17190     17193     17196     17198     17190     17193     17196     17199
     17191     17190     17193     17194     17191     17190     17193     17195
     17191     17190     17193     17196     17192     17190     17193     17194
     17192     17190     17193     17195     17192     17190     17193     17196
     17193     17196     17199     17200     17193     17196     17199     17201
     17193     17196     17199     17202     17194     17193     17196     17197
     17194     17193     17196     17198     17194     17193     17196     17199
     17195     17193     17196     17197     17195     17193     17196     17198
     17195     17193     17196     17199     17196     17199     17202     17203
     17196     17199     17202     17204     17196     17199     17202     17205
     17197     17196     17199     17200     17197     17196     17199     17201
     17197     17196     17199     17202     17198     17196     17199     17200
     17198     17196     17199     17201     17198     17196     17199     17202
     17199     17202     17205     17206     17199     17202     17205     17207
     17199     17202     17205     17208     17200     17199     17202     17203
     17200     17199     17202     17204     17200     17199     17202     17205
     17201     17199     17202     17203     17201     17199     17202     17204
     17201     17199     17202     17205     17202     17205     17208     17209
     17202     17205     17208     17210     17202     17205     17208     17211
     17203     17202     17205     17206     17203     17202     17205     17207
     17203     17202     17205     17208     17204     17202     17205     17206
     17204     17202     17205     17207     17204     17202     17205     17208
     17205     17208     17211     17212     17205     17208     17211     17213
     17205     17208     17211     17214     17206     17205     17208     17209
     17206     17205     17208     17210     17206     17205     17208     17211
     17207     17205     17208     17209     17207     17205     17208     17210
     17207     17205     17208     17211     17208     17211     17214     17215
     17208     17211     17214     17216     17208     17211     17214     17217
     17209     17208     17211     17212     17209     17208     17211     17213
     17209     17208     17211     17214     17210     17208     17211     17212
     17210     17208     17211     17213     17210     17208     17211     17214
     17212     17211     17214     17215     17212     17211     17214     17216
     17212     17211     17214     17217     17213     17211     17214     17215
     17213     17211     17214     17216     17213     17211     17214     17217
     17218     17222     17225     17226     17218     17222     17225     17227
     17218     17222     17225     17232     17219     17218     17222     17223
     17219     17218     17222     17224     17219     17218     17222     17225
     17220     17218     17222     17223     17220     17218     17222     17224
     17220     17218     17222     17225     17221     17218     17222     17223
     17221     17218     17222     17224     17221     17218     17222     17225
     17222     17225     17232     17228     17223     17222     17225     17226
     17223     17222     17225     17227     17223     17222     17225     17232
     17224     17222     17225     17226     17224     17222     17225     17227
     17224     17222     17225     17232     17225     17232     17228     17229
     17225     17232     17228     17230     17225     17232     17228     17231
     17226     17225     17232     17228     17227     17225     17232     17228
     17228     17231     17233     17234     17228     17231     17233     17235
     17228     17231     17233     17236     17229     17228     17231     17233
     17230     17228     17231     17233     17231     17233     17236     17237
     17231     17233     17236     17238     17231     17233     17236     17244
     17232     17228     17231     17233     17233     17236     17238     17239
     17233     17236     17244     17245     17233     17236     17244     17246
     17233     17236     17244     17247     17234     17233     17236     17237
     17234     17233     17236     17238     17234     17233     17236     17244
     17235     17233     17236     17237     17235     17233     17236     17238
     17235     17233     17236     17244     17236     17238     17239     17240
     17236     17238     17239     17241     17236     17244     17247     17248
     17237     17236     17238     17239     17237     17236     17244     17245
     17237     17236     17244     17246     17237     17236     17244     17247
     17238     17236     17244     17245     17238     17236     17244     17246
     17238     17236     17244     17247     17238     17239     17241     17242
     17238     17239     17241     17243     17238     17239     17241     17253
     17239     17238     17236     17244     17239     17241     17253     17254
     17239     17241     17253     17255     17239     17241     17253     17256
     17240     17239     17241     17242     17240     17239     17241     17243
     17240     17239     17241     17253     17241     17253     17256     17257
     17241     17253     17256     17258     17241     17253     17256     17259
     17242     17241     17253     17254     17242     17241     17253     17255
     17242     17241     17253     17256     17243     17241     17253     17254
     17243     17241     17253     17255     17243     17241     17253     17256
     17244     17247     17248     17249     17244     17247     17248     17250
     17245     17244     17247     17248     17246     17244     17247     17248
     17247     17248     17250     17251     17247     17248     17250     17252
     17247     17248     17250     17297     17248     17250     17297     17298
     17248     17250     17297     17299     17248     17250     17297     17300
     17249     17248     17250     17251     17249     17248     17250     17252
     17249     17248     17250     17297     17250     17297     17300     17301
     17250     17297     17300     17302     17250     17297     17300     17303
     17251     17250     17297     17298     17251     17250     17297     17299
     17251     17250     17297     17300     17252     17250     17297     17298
     17252     17250     17297     17299     17252     17250     17297     17300
     17253     17256     17259     17260     17253     17256     17259     17261
     17253     17256     17259     17262     17254     17253     17256     17257
     17254     17253     17256     17258     17254     17253     17256     17259
     17255     17253     17256     17257     17255     17253     17256     17258
     17255     17253     17256     17259     17256     17259     17262     17263
     17256     17259     17262     17264     17256     17259     17262     17265
     17257     17256     17259     17260     17257     17256     17259     17261
     17257     17256     17259     17262     17258     17256     17259     17260
     17258     17256     17259     17261     17258     17256     17259     17262
     17259     17262     17265     17266     17259     17262     17265     17267
     17259     17262     17265     17268     17260     17259     17262     17263
     17260     17259     17262     17264     17260     17259     17262     17265
     17261     17259     17262     17263     17261     17259     17262     17264
     17261     17259     17262     17265     17262     17265     17268     17269
     17262     17265     17268     17270     17262     17265     17268     17271
     17263     17262     17265     17266     17263     17262     17265     17267
     17263     17262     17265     17268     17264     17262     17265     17266
     17264     17262     17265     17267     17264     17262     17265     17268
     17265     17268     17271     17272     17265     17268     17271     17273
     17265     17268     17271     17276     17266     17265     17268     17269
     17266     17265     17268     17270     17266     17265     17268     17271
     17267     17265     17268     17269     17267     17265     17268     17270
     17267     17265     17268     17271     17268     17271     17273     17274
     17268     17271     17273     17275     17268     17271     17273     17276
     17268     17271     17276     17273     17268     17271     17276     17277
     17268     17271     17276     17278     17269     17268     17271     17272
     17269     17268     17271     17273     17269     17268     17271     17276
     17270     17268     17271     17272     17270     17268     17271     17273
     17270     17268     17271     17276     17271     17273     17276     17277
     17271     17273     17276     17278     17271     17276     17273     17274
     17271     17276     17273     17275     17271     17276     17278     17279
     17271     17276     17278     17280     17271     17276     17278     17281
     17272     17271     17273     17274     17272     17271     17273     17275
     17272     17271     17273     17276     17272     17271     17276     17273
     17272     17271     17276     17277     17272     17271     17276     17278
     17273     17271     17276     17277     17273     17271     17276     17278
     17273     17276     17278     17279     17273     17276     17278     17280
     17273     17276     17278     17281     17274     17273     17271     17276
     17274     17273     17276     17277     17274     17273     17276     17278
     17275     17273     17271     17276     17275     17273     17276     17277
     17275     17273     17276     17278     17276     17278     17281     17282
     17276     17278     17281     17283     17276     17278     17281     17284
     17277     17276     17278     17279     17277     17276     17278     17280
     17277     17276     17278     17281     17278     17281     17284     17285
     17278     17281     17284     17286     17278     17281     17284     17287
     17279     17278     17281     17282     17279     17278     17281     17283
     17279     17278     17281     17284     17280     17278     17281     17282
     17280     17278     17281     17283     17280     17278     17281     17284
     17281     17284     17287     17288     17281     17284     17287     17289
     17281     17284     17287     17290     17282     17281     17284     17285
     17282     17281     17284     17286     17282     17281     17284     17287
     17283     17281     17284     17285     17283     17281     17284     17286
     17283     17281     17284     17287     17284     17287     17290     17291
     17284     17287     17290     17292     17284     17287     17290     17293
     17285     17284     17287     17288     17285     17284     17287     17289
     17285     17284     17287     17290     17286     17284     17287     17288
     17286     17284     17287     17289     17286     17284     17287     17290
     17287     17290     17293     17294     17287     17290     17293     17295
     17287     17290     17293     17296     17288     17287     17290     17291
     17288     17287     17290     17292     17288     17287     17290     17293
     17289     17287     17290     17291     17289     17287     17290     17292
     17289     17287     17290     17293     17291     17290     17293     17294
     17291     17290     17293     17295     17291     17290     17293     17296
     17292     17290     17293     17294     17292     17290     17293     17295
     17292     17290     17293     17296     17297     17300     17303     17304
     17297     17300     17303     17305     17297     17300     17303     17306
     17298     17297     17300     17301     17298     17297     17300     17302
     17298     17297     17300     17303     17299     17297     17300     17301
     17299     17297     17300     17302     17299     17297     17300     17303
     17300     17303     17306     17307     17300     17303     17306     17308
     17300     17303     17306     17309     17301     17300     17303     17304
     17301     17300     17303     17305     17301     17300     17303     17306
     17302     17300     17303     17304     17302     17300     17303     17305
     17302     17300     17303     17306     17303     17306     17309     17310
     17303     17306     17309     17311     17303     17306     17309     17312
     17304     17303     17306     17307     17304     17303     17306     17308
     17304     17303     17306     17309     17305     17303     17306     17307
     17305     17303     17306     17308     17305     17303     17306     17309
     17306     17309     17312     17313     17306     17309     17312     17314
     17306     17309     17312     17315     17307     17306     17309     17310
     17307     17306     17309     17311     17307     17306     17309     17312
     17308     17306     17309     17310     17308     17306     17309     17311
     17308     17306     17309     17312     17309     17312     17315     17316
     17309     17312     17315     17317     17309     17312     17315     17318
     17310     17309     17312     17313     17310     17309     17312     17314
     17310     17309     17312     17315     17311     17309     17312     17313
     17311     17309     17312     17314     17311     17309     17312     17315
     17312     17315     17318     17319     17312     17315     17318     17320
     17312     17315     17318     17321     17313     17312     17315     17316
     17313     17312     17315     17317     17313     17312     17315     17318
     17314     17312     17315     17316     17314     17312     17315     17317
     17314     17312     17315     17318     17315     17318     17321     17322
     17315     17318     17321     17323     17315     17318     17321     17324
     17316     17315     17318     17319     17316     17315     17318     17320
     17316     17315     17318     17321     17317     17315     17318     17319
     17317     17315     17318     17320     17317     17315     17318     17321
     17318     17321     17324     17325     17318     17321     17324     17326
     17318     17321     17324     17327     17319     17318     17321     17322
     17319     17318     17321     17323     17319     17318     17321     17324
     17320     17318     17321     17322     17320     17318     17321     17323
     17320     17318     17321     17324     17321     17324     17327     17328
     17321     17324     17327     17329     17321     17324     17327     17330
     17322     17321     17324     17325     17322     17321     17324     17326
     17322     17321     17324     17327     17323     17321     17324     17325
     17323     17321     17324     17326     17323     17321     17324     17327
     17324     17327     17330     17331     17324     17327     17330     17332
     17324     17327     17330     17333     17325     17324     17327     17328
     17325     17324     17327     17329     17325     17324     17327     17330
     17326     17324     17327     17328     17326     17324     17327     17329
     17326     17324     17327     17330     17327     17330     17333     17334
     17327     17330     17333     17335     17327     17330     17333     17336
     17328     17327     17330     17331     17328     17327     17330     17332
     17328     17327     17330     17333     17329     17327     17330     17331
     17329     17327     17330     17332     17329     17327     17330     17333
     17330     17333     17336     17337     17330     17333     17336     17338
     17330     17333     17336     17339     17331     17330     17333     17334
     17331     17330     17333     17335     17331     17330     17333     17336
     17332     17330     17333     17334     17332     17330     17333     17335
     17332     17330     17333     17336     17334     17333     17336     17337
     17334     17333     17336     17338     17334     17333     17336     17339
     17335     17333     17336     17337     17335     17333     17336     17338
     17335     17333     17336     17339     17340     17345     17347     17348
     17340     17345     17349     17350     17340     17345     17349     17351
     17340     17345     17349     17356     17341     17340     17343     17344
     17341     17340     17345     17346     17341     17340     17345     17347
     17341     17340     17345     17349     17342     17340     17343     17344
     17342     17340     17345     17346     17342     17340     17345     17347
     17342     17340     17345     17349     17343     17340     17345     17346
     17343     17340     17345     17347     17343     17340     17345     17349
     17344     17343     17340     17345     17345     17349     17356     17352
     17346     17345     17347     17348     17346     17345     17349     17350
     17346     17345     17349     17351     17346     17345     17349     17356
     17347     17345     17349     17350     17347     17345     17349     17351
     17347     17345     17349     17356     17348     17347     17345     17349
     17349     17356     17352     17353     17349     17356     17352     17354
     17349     17356     17352     17355     17350     17349     17356     17352
     17351     17349     17356     17352     17352     17355     17357     17358
     17352     17355     17357     17359     17352     17355     17357     17360
     17353     17352     17355     17357     17354     17352     17355     17357
     17355     17357     17360     17361     17355     17357     17360     17362
     17355     17357     17360     17368     17356     17352     17355     17357
     17357     17360     17362     17363     17357     17360     17368     17369
     17357     17360     17368     17370     17357     17360     17368     17371
     17358     17357     17360     17361     17358     17357     17360     17362
     17358     17357     17360     17368     17359     17357     17360     17361
     17359     17357     17360     17362     17359     17357     17360     17368
     17360     17362     17363     17364     17360     17362     17363     17365
     17360     17368     17371     17372     17361     17360     17362     17363
     17361     17360     17368     17369     17361     17360     17368     17370
     17361     17360     17368     17371     17362     17360     17368     17369
     17362     17360     17368     17370     17362     17360     17368     17371
     17362     17363     17365     17366     17362     17363     17365     17367
     17362     17363     17365     17377     17363     17362     17360     17368
     17363     17365     17377     17378     17363     17365     17377     17379
     17363     17365     17377     17380     17364     17363     17365     17366
     17364     17363     17365     17367     17364     17363     17365     17377
     17365     17377     17380     17381     17365     17377     17380     17382
     17365     17377     17380     17383     17366     17365     17377     17378
     17366     17365     17377     17379     17366     17365     17377     17380
     17367     17365     17377     17378     17367     17365     17377     17379
     17367     17365     17377     17380     17368     17371     17372     17373
     17368     17371     17372     17374     17369     17368     17371     17372
     17370     17368     17371     17372     17371     17372     17374     17375
     17371     17372     17374     17376     17371     17372     17374     17421
     17372     17374     17421     17422     17372     17374     17421     17423
     17372     17374     17421     17424     17373     17372     17374     17375
     17373     17372     17374     17376     17373     17372     17374     17421
     17374     17421     17424     17425     17374     17421     17424     17426
     17374     17421     17424     17427     17375     17374     17421     17422
     17375     17374     17421     17423     17375     17374     17421     17424
     17376     17374     17421     17422     17376     17374     17421     17423
     17376     17374     17421     17424     17377     17380     17383     17384
     17377     17380     17383     17385     17377     17380     17383     17386
     17378     17377     17380     17381     17378     17377     17380     17382
     17378     17377     17380     17383     17379     17377     17380     17381
     17379     17377     17380     17382     17379     17377     17380     17383
     17380     17383     17386     17387     17380     17383     17386     17388
     17380     17383     17386     17389     17381     17380     17383     17384
     17381     17380     17383     17385     17381     17380     17383     17386
     17382     17380     17383     17384     17382     17380     17383     17385
     17382     17380     17383     17386     17383     17386     17389     17390
     17383     17386     17389     17391     17383     17386     17389     17392
     17384     17383     17386     17387     17384     17383     17386     17388
     17384     17383     17386     17389     17385     17383     17386     17387
     17385     17383     17386     17388     17385     17383     17386     17389
     17386     17389     17392     17393     17386     17389     17392     17394
     17386     17389     17392     17395     17387     17386     17389     17390
     17387     17386     17389     17391     17387     17386     17389     17392
     17388     17386     17389     17390     17388     17386     17389     17391
     17388     17386     17389     17392     17389     17392     17395     17396
     17389     17392     17395     17397     17389     17392     17395     17400
     17390     17389     17392     17393     17390     17389     17392     17394
     17390     17389     17392     17395     17391     17389     17392     17393
     17391     17389     17392     17394     17391     17389     17392     17395
     17392     17395     17397     17398     17392     17395     17397     17399
     17392     17395     17397     17400     17392     17395     17400     17397
     17392     17395     17400     17401     17392     17395     17400     17402
     17393     17392     17395     17396     17393     17392     17395     17397
     17393     17392     17395     17400     17394     17392     17395     17396
     17394     17392     17395     17397     17394     17392     17395     17400
     17395     17397     17400     17401     17395     17397     17400     17402
     17395     17400     17397     17398     17395     17400     17397     17399
     17395     17400     17402     17403     17395     17400     17402     17404
     17395     17400     17402     17405     17396     17395     17397     17398
     17396     17395     17397     17399     17396     17395     17397     17400
     17396     17395     17400     17397     17396     17395     17400     17401
     17396     17395     17400     17402     17397     17395     17400     17401
     17397     17395     17400     17402     17397     17400     17402     17403
     17397     17400     17402     17404     17397     17400     17402     17405
     17398     17397     17395     17400     17398     17397     17400     17401
     17398     17397     17400     17402     17399     17397     17395     17400
     17399     17397     17400     17401     17399     17397     17400     17402
     17400     17402     17405     17406     17400     17402     17405     17407
     17400     17402     17405     17408     17401     17400     17402     17403
     17401     17400     17402     17404     17401     17400     17402     17405
     17402     17405     17408     17409     17402     17405     17408     17410
     17402     17405     17408     17411     17403     17402     17405     17406
     17403     17402     17405     17407     17403     17402     17405     17408
     17404     17402     17405     17406     17404     17402     17405     17407
     17404     17402     17405     17408     17405     17408     17411     17412
     17405     17408     17411     17413     17405     17408     17411     17414
     17406     17405     17408     17409     17406     17405     17408     17410
     17406     17405     17408     17411     17407     17405     17408     17409
     17407     17405     17408     17410     17407     17405     17408     17411
     17408     17411     17414     17415     17408     17411     17414     17416
     17408     17411     17414     17417     17409     17408     17411     17412
     17409     17408     17411     17413     17409     17408     17411     17414
     17410     17408     17411     17412     17410     17408     17411     17413
     17410     17408     17411     17414     17411     17414     17417     17418
     17411     17414     17417     17419     17411     17414     17417     17420
     17412     17411     17414     17415     17412     17411     17414     17416
     17412     17411     17414     17417     17413     17411     17414     17415
     17413     17411     17414     17416     17413     17411     17414     17417
     17415     17414     17417     17418     17415     17414     17417     17419
     17415     17414     17417     17420     17416     17414     17417     17418
     17416     17414     17417     17419     17416     17414     17417     17420
     17421     17424     17427     17428     17421     17424     17427     17429
     17421     17424     17427     17430     17422     17421     17424     17425
     17422     17421     17424     17426     17422     17421     17424     17427
     17423     17421     17424     17425     17423     17421     17424     17426
     17423     17421     17424     17427     17424     17427     17430     17431
     17424     17427     17430     17432     17424     17427     17430     17433
     17425     17424     17427     17428     17425     17424     17427     17429
     17425     17424     17427     17430     17426     17424     17427     17428
     17426     17424     17427     17429     17426     17424     17427     17430
     17427     17430     17433     17434     17427     17430     17433     17435
     17427     17430     17433     17436     17428     17427     17430     17431
     17428     17427     17430     17432     17428     17427     17430     17433
     17429     17427     17430     17431     17429     17427     17430     17432
     17429     17427     17430     17433     17430     17433     17436     17437
     17430     17433     17436     17438     17430     17433     17436     17439
     17431     17430     17433     17434     17431     17430     17433     17435
     17431     17430     17433     17436     17432     17430     17433     17434
     17432     17430     17433     17435     17432     17430     17433     17436
     17433     17436     17439     17440     17433     17436     17439     17441
     17433     17436     17439     17442     17434     17433     17436     17437
     17434     17433     17436     17438     17434     17433     17436     17439
     17435     17433     17436     17437     17435     17433     17436     17438
     17435     17433     17436     17439     17436     17439     17442     17443
     17436     17439     17442     17444     17436     17439     17442     17445
     17437     17436     17439     17440     17437     17436     17439     17441
     17437     17436     17439     17442     17438     17436     17439     17440
     17438     17436     17439     17441     17438     17436     17439     17442
     17439     17442     17445     17446     17439     17442     17445     17447
     17439     17442     17445     17448     17440     17439     17442     17443
     17440     17439     17442     17444     17440     17439     17442     17445
     17441     17439     17442     17443     17441     17439     17442     17444
     17441     17439     17442     17445     17442     17445     17448     17449
     17442     17445     17448     17450     17442     17445     17448     17451
     17443     17442     17445     17446     17443     17442     17445     17447
     17443     17442     17445     17448     17444     17442     17445     17446
     17444     17442     17445     17447     17444     17442     17445     17448
     17445     17448     17451     17452     17445     17448     17451     17453
     17445     17448     17451     17454     17446     17445     17448     17449
     17446     17445     17448     17450     17446     17445     17448     17451
     17447     17445     17448     17449     17447     17445     17448     17450
     17447     17445     17448     17451     17448     17451     17454     17455
     17448     17451     17454     17456     17448     17451     17454     17457
     17449     17448     17451     17452     17449     17448     17451     17453
     17449     17448     17451     17454     17450     17448     17451     17452
     17450     17448     17451     17453     17450     17448     17451     17454
     17451     17454     17457     17458     17451     17454     17457     17459
     17451     17454     17457     17460     17452     17451     17454     17455
     17452     17451     17454     17456     17452     17451     17454     17457
     17453     17451     17454     17455     17453     17451     17454     17456
     17453     17451     17454     17457     17454     17457     17460     17461
     17454     17457     17460     17462     17454     17457     17460     17463
     17455     17454     17457     17458     17455     17454     17457     17459
     17455     17454     17457     17460     17456     17454     17457     17458
     17456     17454     17457     17459     17456     17454     17457     17460
     17458     17457     17460     17461     17458     17457     17460     17462
     17458     17457     17460     17463     17459     17457     17460     17461
     17459     17457     17460     17462     17459     17457     17460     17463
     17464     17468     17471     17472     17464     17468     17471     17473
     17464     17468     17471     17478     17465     17464     17468     17469
     17465     17464     17468     17470     17465     17464     17468     17471
     17466     17464     17468     17469     17466     17464     17468     17470
     17466     17464     17468     17471     17467     17464     17468     17469
     17467     17464     17468     17470     17467     17464     17468     17471
     17468     17471     17478     17474     17469     17468     17471     17472
     17469     17468     17471     17473     17469     17468     17471     17478
     17470     17468     17471     17472     17470     17468     17471     17473
     17470     17468     17471     17478     17471     17478     17474     17475
     17471     17478     17474     17476     17471     17478     17474     17477
     17472     17471     17478     17474     17473     17471     17478     17474
     17474     17477     17479     17480     17474     17477     17479     17481
     17474     17477     17479     17482     17475     17474     17477     17479
     17476     17474     17477     17479     17477     17479     17482     17483
     17477     17479     17482     17484     17477     17479     17482     17490
     17478     17474     17477     17479     17479     17482     17484     17485
     17479     17482     17490     17491     17479     17482     17490     17492
     17479     17482     17490     17493     17480     17479     17482     17483
     17480     17479     17482     17484     17480     17479     17482     17490
     17481     17479     17482     17483     17481     17479     17482     17484
     17481     17479     17482     17490     17482     17484     17485     17486
     17482     17484     17485     17487     17482     17490     17493     17494
     17483     17482     17484     17485     17483     17482     17490     17491
     17483     17482     17490     17492     17483     17482     17490     17493
     17484     17482     17490     17491     17484     17482     17490     17492
     17484     17482     17490     17493     17484     17485     17487     17488
     17484     17485     17487     17489     17484     17485     17487     17499
     17485     17484     17482     17490     17485     17487     17499     17500
     17485     17487     17499     17501     17485     17487     17499     17502
     17486     17485     17487     17488     17486     17485     17487     17489
     17486     17485     17487     17499     17487     17499     17502     17503
     17487     17499     17502     17504     17487     17499     17502     17505
     17488     17487     17499     17500     17488     17487     17499     17501
     17488     17487     17499     17502     17489     17487     17499     17500
     17489     17487     17499     17501     17489     17487     17499     17502
     17490     17493     17494     17495     17490     17493     17494     17496
     17491     17490     17493     17494     17492     17490     17493     17494
     17493     17494     17496     17497     17493     17494     17496     17498
     17493     17494     17496     17543     17494     17496     17543     17544
     17494     17496     17543     17545     17494     17496     17543     17546
     17495     17494     17496     17497     17495     17494     17496     17498
     17495     17494     17496     17543     17496     17543     17546     17547
     17496     17543     17546     17548     17496     17543     17546     17549
     17497     17496     17543     17544     17497     17496     17543     17545
     17497     17496     17543     17546     17498     17496     17543     17544
     17498     17496     17543     17545     17498     17496     17543     17546
     17499     17502     17505     17506     17499     17502     17505     17507
     17499     17502     17505     17508     17500     17499     17502     17503
     17500     17499     17502     17504     17500     17499     17502     17505
     17501     17499     17502     17503     17501     17499     17502     17504
     17501     17499     17502     17505     17502     17505     17508     17509
     17502     17505     17508     17510     17502     17505     17508     17511
     17503     17502     17505     17506     17503     17502     17505     17507
     17503     17502     17505     17508     17504     17502     17505     17506
     17504     17502     17505     17507     17504     17502     17505     17508
     17505     17508     17511     17512     17505     17508     17511     17513
     17505     17508     17511     17514     17506     17505     17508     17509
     17506     17505     17508     17510     17506     17505     17508     17511
     17507     17505     17508     17509     17507     17505     17508     17510
     17507     17505     17508     17511     17508     17511     17514     17515
     17508     17511     17514     17516     17508     17511     17514     17517
     17509     17508     17511     17512     17509     17508     17511     17513
     17509     17508     17511     17514     17510     17508     17511     17512
     17510     17508     17511     17513     17510     17508     17511     17514
     17511     17514     17517     17518     17511     17514     17517     17519
     17511     17514     17517     17522     17512     17511     17514     17515
     17512     17511     17514     17516     17512     17511     17514     17517
     17513     17511     17514     17515     17513     17511     17514     17516
     17513     17511     17514     17517     17514     17517     17519     17520
     17514     17517     17519     17521     17514     17517     17519     17522
     17514     17517     17522     17519     17514     17517     17522     17523
     17514     17517     17522     17524     17515     17514     17517     17518
     17515     17514     17517     17519     17515     17514     17517     17522
     17516     17514     17517     17518     17516     17514     17517     17519
     17516     17514     17517     17522     17517     17519     17522     17523
     17517     17519     17522     17524     17517     17522     17519     17520
     17517     17522     17519     17521     17517     17522     17524     17525
     17517     17522     17524     17526     17517     17522     17524     17527
     17518     17517     17519     17520     17518     17517     17519     17521
     17518     17517     17519     17522     17518     17517     17522     17519
     17518     17517     17522     17523     17518     17517     17522     17524
     17519     17517     17522     17523     17519     17517     17522     17524
     17519     17522     17524     17525     17519     17522     17524     17526
     17519     17522     17524     17527     17520     17519     17517     17522
     17520     17519     17522     17523     17520     17519     17522     17524
     17521     17519     17517     17522     17521     17519     17522     17523
     17521     17519     17522     17524     17522     17524     17527     17528
     17522     17524     17527     17529     17522     17524     17527     17530
     17523     17522     17524     17525     17523     17522     17524     17526
     17523     17522     17524     17527     17524     17527     17530     17531
     17524     17527     17530     17532     17524     17527     17530     17533
     17525     17524     17527     17528     17525     17524     17527     17529
     17525     17524     17527     17530     17526     17524     17527     17528
     17526     17524     17527     17529     17526     17524     17527     17530
     17527     17530     17533     17534     17527     17530     17533     17535
     17527     17530     17533     17536     17528     17527     17530     17531
     17528     17527     17530     17532     17528     17527     17530     17533
     17529     17527     17530     17531     17529     17527     17530     17532
     17529     17527     17530     17533     17530     17533     17536     17537
     17530     17533     17536     17538     17530     17533     17536     17539
     17531     17530     17533     17534     17531     17530     17533     17535
     17531     17530     17533     17536     17532     17530     17533     17534
     17532     17530     17533     17535     17532     17530     17533     17536
     17533     17536     17539     17540     17533     17536     17539     17541
     17533     17536     17539     17542     17534     17533     17536     17537
     17534     17533     17536     17538     17534     17533     17536     17539
     17535     17533     17536     17537     17535     17533     17536     17538
     17535     17533     17536     17539     17537     17536     17539     17540
     17537     17536     17539     17541     17537     17536     17539     17542
     17538     17536     17539     17540     17538     17536     17539     17541
     17538     17536     17539     17542     17543     17546     17549     17550
     17543     17546     17549     17551     17543     17546     17549     17552
     17544     17543     17546     17547     17544     17543     17546     17548
     17544     17543     17546     17549     17545     17543     17546     17547
     17545     17543     17546     17548     17545     17543     17546     17549
     17546     17549     17552     17553     17546     17549     17552     17554
     17546     17549     17552     17555     17547     17546     17549     17550
     17547     17546     17549     17551     17547     17546     17549     17552
     17548     17546     17549     17550     17548     17546     17549     17551
     17548     17546     17549     17552     17549     17552     17555     17556
     17549     17552     17555     17557     17549     17552     17555     17558
     17550     17549     17552     17553     17550     17549     17552     17554
     17550     17549     17552     17555     17551     17549     17552     17553
     17551     17549     17552     17554     17551     17549     17552     17555
     17552     17555     17558     17559     17552     17555     17558     17560
     17552     17555     17558     17561     17553     17552     17555     17556
     17553     17552     17555     17557     17553     17552     17555     17558
     17554     17552     17555     17556     17554     17552     17555     17557
     17554     17552     17555     17558     17555     17558     17561     17562
     17555     17558     17561     17563     17555     17558     17561     17564
     17556     17555     17558     17559     17556     17555     17558     17560
     17556     17555     17558     17561     17557     17555     17558     17559
     17557     17555     17558     17560     17557     17555     17558     17561
     17558     17561     17564     17565     17558     17561     17564     17566
     17558     17561     17564     17567     17559     17558     17561     17562
     17559     17558     17561     17563     17559     17558     17561     17564
     17560     17558     17561     17562     17560     17558     17561     17563
     17560     17558     17561     17564     17561     17564     17567     17568
     17561     17564     17567     17569     17561     17564     17567     17570
     17562     17561     17564     17565     17562     17561     17564     17566
     17562     17561     17564     17567     17563     17561     17564     17565
     17563     17561     17564     17566     17563     17561     17564     17567
     17564     17567     17570     17571     17564     17567     17570     17572
     17564     17567     17570     17573     17565     17564     17567     17568
     17565     17564     17567     17569     17565     17564     17567     17570
     17566     17564     17567     17568     17566     17564     17567     17569
     17566     17564     17567     17570     17567     17570     17573     17574
     17567     17570     17573     17575     17567     17570     17573     17576
     17568     17567     17570     17571     17568     17567     17570     17572
     17568     17567     17570     17573     17569     17567     17570     17571
     17569     17567     17570     17572     17569     17567     17570     17573
     17570     17573     17576     17577     17570     17573     17576     17578
     17570     17573     17576     17579     17571     17570     17573     17574
     17571     17570     17573     17575     17571     17570     17573     17576
     17572     17570     17573     17574     17572     17570     17573     17575
     17572     17570     17573     17576     17573     17576     17579     17580
     17573     17576     17579     17581     17573     17576     17579     17582
     17574     17573     17576     17577     17574     17573     17576     17578
     17574     17573     17576     17579     17575     17573     17576     17577
     17575     17573     17576     17578     17575     17573     17576     17579
     17576     17579     17582     17583     17576     17579     17582     17584
     17576     17579     17582     17585     17577     17576     17579     17580
     17577     17576     17579     17581     17577     17576     17579     17582
     17578     17576     17579     17580     17578     17576     17579     17581
     17578     17576     17579     17582     17580     17579     17582     17583
     17580     17579     17582     17584     17580     17579     17582     17585
     17581     17579     17582     17583     17581     17579     17582     17584
     17581     17579     17582     17585     17586     17591     17593     17594
     17586     17591     17595     17596     17586     17591     17595     17597
     17586     17591     17595     17602     17587     17586     17589     17590
     17587     17586     17591     17592     17587     17586     17591     17593
     17587     17586     17591     17595     17588     17586     17589     17590
     17588     17586     17591     17592     17588     17586     17591     17593
     17588     17586     17591     17595     17589     17586     17591     17592
     17589     17586     17591     17593     17589     17586     17591     17595
     17590     17589     17586     17591     17591     17595     17602     17598
     17592     17591     17593     17594     17592     17591     17595     17596
     17592     17591     17595     17597     17592     17591     17595     17602
     17593     17591     17595     17596     17593     17591     17595     17597
     17593     17591     17595     17602     17594     17593     17591     17595
     17595     17602     17598     17599     17595     17602     17598     17600
     17595     17602     17598     17601     17596     17595     17602     17598
     17597     17595     17602     17598     17598     17601     17603     17604
     17598     17601     17603     17605     17598     17601     17603     17606
     17599     17598     17601     17603     17600     17598     17601     17603
     17601     17603     17606     17607     17601     17603     17606     17608
     17601     17603     17606     17614     17602     17598     17601     17603
     17603     17606     17608     17609     17603     17606     17614     17615
     17603     17606     17614     17616     17603     17606     17614     17617
     17604     17603     17606     17607     17604     17603     17606     17608
     17604     17603     17606     17614     17605     17603     17606     17607
     17605     17603     17606     17608     17605     17603     17606     17614
     17606     17608     17609     17610     17606     17608     17609     17611
     17606     17614     17617     17618     17607     17606     17608     17609
     17607     17606     17614     17615     17607     17606     17614     17616
     17607     17606     17614     17617     17608     17606     17614     17615
     17608     17606     17614     17616     17608     17606     17614     17617
     17608     17609     17611     17612     17608     17609     17611     17613
     17608     17609     17611     17623     17609     17608     17606     17614
     17609     17611     17623     17624     17609     17611     17623     17625
     17609     17611     17623     17626     17610     17609     17611     17612
     17610     17609     17611     17613     17610     17609     17611     17623
     17611     17623     17626     17627     17611     17623     17626     17628
     17611     17623     17626     17629     17612     17611     17623     17624
     17612     17611     17623     17625     17612     17611     17623     17626
     17613     17611     17623     17624     17613     17611     17623     17625
     17613     17611     17623     17626     17614     17617     17618     17619
     17614     17617     17618     17620     17615     17614     17617     17618
     17616     17614     17617     17618     17617     17618     17620     17621
     17617     17618     17620     17622     17617     17618     17620     17667
     17618     17620     17667     17668     17618     17620     17667     17669
     17618     17620     17667     17670     17619     17618     17620     17621
     17619     17618     17620     17622     17619     17618     17620     17667
     17620     17667     17670     17671     17620     17667     17670     17672
     17620     17667     17670     17673     17621     17620     17667     17668
     17621     17620     17667     17669     17621     17620     17667     17670
     17622     17620     17667     17668     17622     17620     17667     17669
     17622     17620     17667     17670     17623     17626     17629     17630
     17623     17626     17629     17631     17623     17626     17629     17632
     17624     17623     17626     17627     17624     17623     17626     17628
     17624     17623     17626     17629     17625     17623     17626     17627
     17625     17623     17626     17628     17625     17623     17626     17629
     17626     17629     17632     17633     17626     17629     17632     17634
     17626     17629     17632     17635     17627     17626     17629     17630
     17627     17626     17629     17631     17627     17626     17629     17632
     17628     17626     17629     17630     17628     17626     17629     17631
     17628     17626     17629     17632     17629     17632     17635     17636
     17629     17632     17635     17637     17629     17632     17635     17638
     17630     17629     17632     17633     17630     17629     17632     17634
     17630     17629     17632     17635     17631     17629     17632     17633
     17631     17629     17632     17634     17631     17629     17632     17635
     17632     17635     17638     17639     17632     17635     17638     17640
     17632     17635     17638     17641     17633     17632     17635     17636
     17633     17632     17635     17637     17633     17632     17635     17638
     17634     17632     17635     17636     17634     17632     17635     17637
     17634     17632     17635     17638     17635     17638     17641     17642
     17635     17638     17641     17643     17635     17638     17641     17646
     17636     17635     17638     17639     17636     17635     17638     17640
     17636     17635     17638     17641     17637     17635     17638     17639
     17637     17635     17638     17640     17637     17635     17638     17641
     17638     17641     17643     17644     17638     17641     17643     17645
     17638     17641     17643     17646     17638     17641     17646     17643
     17638     17641     17646     17647     17638     17641     17646     17648
     17639     17638     17641     17642     17639     17638     17641     17643
     17639     17638     17641     17646     17640     17638     17641     17642
     17640     17638     17641     17643     17640     17638     17641     17646
     17641     17643     17646     17647     17641     17643     17646     17648
     17641     17646     17643     17644     17641     17646     17643     17645
     17641     17646     17648     17649     17641     17646     17648     17650
     17641     17646     17648     17651     17642     17641     17643     17644
     17642     17641     17643     17645     17642     17641     17643     17646
     17642     17641     17646     17643     17642     17641     17646     17647
     17642     17641     17646     17648     17643     17641     17646     17647
     17643     17641     17646     17648     17643     17646     17648     17649
     17643     17646     17648     17650     17643     17646     17648     17651
     17644     17643     17641     17646     17644     17643     17646     17647
     17644     17643     17646     17648     17645     17643     17641     17646
     17645     17643     17646     17647     17645     17643     17646     17648
     17646     17648     17651     17652     17646     17648     17651     17653
     17646     17648     17651     17654     17647     17646     17648     17649
     17647     17646     17648     17650     17647     17646     17648     17651
     17648     17651     17654     17655     17648     17651     17654     17656
     17648     17651     17654     17657     17649     17648     17651     17652
     17649     17648     17651     17653     17649     17648     17651     17654
     17650     17648     17651     17652     17650     17648     17651     17653
     17650     17648     17651     17654     17651     17654     17657     17658
     17651     17654     17657     17659     17651     17654     17657     17660
     17652     17651     17654     17655     17652     17651     17654     17656
     17652     17651     17654     17657     17653     17651     17654     17655
     17653     17651     17654     17656     17653     17651     17654     17657
     17654     17657     17660     17661     17654     17657     17660     17662
     17654     17657     17660     17663     17655     17654     17657     17658
     17655     17654     17657     17659     17655     17654     17657     17660
     17656     17654     17657     17658     17656     17654     17657     17659
     17656     17654     17657     17660     17657     17660     17663     17664
     17657     17660     17663     17665     17657     17660     17663     17666
     17658     17657     17660     17661     17658     17657     17660     17662
     17658     17657     17660     17663     17659     17657     17660     17661
     17659     17657     17660     17662     17659     17657     17660     17663
     17661     17660     17663     17664     17661     17660     17663     17665
     17661     17660     17663     17666     17662     17660     17663     17664
     17662     17660     17663     17665     17662     17660     17663     17666
     17667     17670     17673     17674     17667     17670     17673     17675
     17667     17670     17673     17676     17668     17667     17670     17671
     17668     17667     17670     17672     17668     17667     17670     17673
     17669     17667     17670     17671     17669     17667     17670     17672
     17669     17667     17670     17673     17670     17673     17676     17677
     17670     17673     17676     17678     17670     17673     17676     17679
     17671     17670     17673     17674     17671     17670     17673     17675
     17671     17670     17673     17676     17672     17670     17673     17674
     17672     17670     17673     17675     17672     17670     17673     17676
     17673     17676     17679     17680     17673     17676     17679     17681
     17673     17676     17679     17682     17674     17673     17676     17677
     17674     17673     17676     17678     17674     17673     17676     17679
     17675     17673     17676     17677     17675     17673     17676     17678
     17675     17673     17676     17679     17676     17679     17682     17683
     17676     17679     17682     17684     17676     17679     17682     17685
     17677     17676     17679     17680     17677     17676     17679     17681
     17677     17676     17679     17682     17678     17676     17679     17680
     17678     17676     17679     17681     17678     17676     17679     17682
     17679     17682     17685     17686     17679     17682     17685     17687
     17679     17682     17685     17688     17680     17679     17682     17683
     17680     17679     17682     17684     17680     17679     17682     17685
     17681     17679     17682     17683     17681     17679     17682     17684
     17681     17679     17682     17685     17682     17685     17688     17689
     17682     17685     17688     17690     17682     17685     17688     17691
     17683     17682     17685     17686     17683     17682     17685     17687
     17683     17682     17685     17688     17684     17682     17685     17686
     17684     17682     17685     17687     17684     17682     17685     17688
     17685     17688     17691     17692     17685     17688     17691     17693
     17685     17688     17691     17694     17686     17685     17688     17689
     17686     17685     17688     17690     17686     17685     17688     17691
     17687     17685     17688     17689     17687     17685     17688     17690
     17687     17685     17688     17691     17688     17691     17694     17695
     17688     17691     17694     17696     17688     17691     17694     17697
     17689     17688     17691     17692     17689     17688     17691     17693
     17689     17688     17691     17694     17690     17688     17691     17692
     17690     17688     17691     17693     17690     17688     17691     17694
     17691     17694     17697     17698     17691     17694     17697     17699
     17691     17694     17697     17700     17692     17691     17694     17695
     17692     17691     17694     17696     17692     17691     17694     17697
     17693     17691     17694     17695     17693     17691     17694     17696
     17693     17691     17694     17697     17694     17697     17700     17701
     17694     17697     17700     17702     17694     17697     17700     17703
     17695     17694     17697     17698     17695     17694     17697     17699
     17695     17694     17697     17700     17696     17694     17697     17698
     17696     17694     17697     17699     17696     17694     17697     17700
     17697     17700     17703     17704     17697     17700     17703     17705
     17697     17700     17703     17706     17698     17697     17700     17701
     17698     17697     17700     17702     17698     17697     17700     17703
     17699     17697     17700     17701     17699     17697     17700     17702
     17699     17697     17700     17703     17700     17703     17706     17707
     17700     17703     17706     17708     17700     17703     17706     17709
     17701     17700     17703     17704     17701     17700     17703     17705
     17701     17700     17703     17706     17702     17700     17703     17704
     17702     17700     17703     17705     17702     17700     17703     17706
     17704     17703     17706     17707     17704     17703     17706     17708
     17704     17703     17706     17709     17705     17703     17706     17707
     17705     17703     17706     17708     17705     17703     17706     17709
     17710     17714     17717     17718     17710     17714     17717     17719
     17710     17714     17717     17724     17711     17710     17714     17715
     17711     17710     17714     17716     17711     17710     17714     17717
     17712     17710     17714     17715     17712     17710     17714     17716
     17712     17710     17714     17717     17713     17710     17714     17715
     17713     17710     17714     17716     17713     17710     17714     17717
     17714     17717     17724     17720     17715     17714     17717     17718
     17715     17714     17717     17719     17715     17714     17717     17724
     17716     17714     17717     17718     17716     17714     17717     17719
     17716     17714     17717     17724     17717     17724     17720     17721
     17717     17724     17720     17722     17717     17724     17720     17723
     17718     17717     17724     17720     17719     17717     17724     17720
     17720     17723     17725     17726     17720     17723     17725     17727
     17720     17723     17725     17728     17721     17720     17723     17725
     17722     17720     17723     17725     17723     17725     17728     17729
     17723     17725     17728     17730     17723     17725     17728     17736
     17724     17720     17723     17725     17725     17728     17730     17731
     17725     17728     17736     17737     17725     17728     17736     17738
     17725     17728     17736     17739     17726     17725     17728     17729
     17726     17725     17728     17730     17726     17725     17728     17736
     17727     17725     17728     17729     17727     17725     17728     17730
     17727     17725     17728     17736     17728     17730     17731     17732
     17728     17730     17731     17733     17728     17736     17739     17740
     17729     17728     17730     17731     17729     17728     17736     17737
     17729     17728     17736     17738     17729     17728     17736     17739
     17730     17728     17736     17737     17730     17728     17736     17738
     17730     17728     17736     17739     17730     17731     17733     17734
     17730     17731     17733     17735     17730     17731     17733     17745
     17731     17730     17728     17736     17731     17733     17745     17746
     17731     17733     17745     17747     17731     17733     17745     17748
     17732     17731     17733     17734     17732     17731     17733     17735
     17732     17731     17733     17745     17733     17745     17748     17749
     17733     17745     17748     17750     17733     17745     17748     17751
     17734     17733     17745     17746     17734     17733     17745     17747
     17734     17733     17745     17748     17735     17733     17745     17746
     17735     17733     17745     17747     17735     17733     17745     17748
     17736     17739     17740     17741     17736     17739     17740     17742
     17737     17736     17739     17740     17738     17736     17739     17740
     17739     17740     17742     17743     17739     17740     17742     17744
     17739     17740     17742     17789     17740     17742     17789     17790
     17740     17742     17789     17791     17740     17742     17789     17792
     17741     17740     17742     17743     17741     17740     17742     17744
     17741     17740     17742     17789     17742     17789     17792     17793
     17742     17789     17792     17794     17742     17789     17792     17795
     17743     17742     17789     17790     17743     17742     17789     17791
     17743     17742     17789     17792     17744     17742     17789     17790
     17744     17742     17789     17791     17744     17742     17789     17792
     17745     17748     17751     17752     17745     17748     17751     17753
     17745     17748     17751     17754     17746     17745     17748     17749
     17746     17745     17748     17750     17746     17745     17748     17751
     17747     17745     17748     17749     17747     17745     17748     17750
     17747     17745     17748     17751     17748     17751     17754     17755
     17748     17751     17754     17756     17748     17751     17754     17757
     17749     17748     17751     17752     17749     17748     17751     17753
     17749     17748     17751     17754     17750     17748     17751     17752
     17750     17748     17751     17753     17750     17748     17751     17754
     17751     17754     17757     17758     17751     17754     17757     17759
     17751     17754     17757     17760     17752     17751     17754     17755
     17752     17751     17754     17756     17752     17751     17754     17757
     17753     17751     17754     17755     17753     17751     17754     17756
     17753     17751     17754     17757     17754     17757     17760     17761
     17754     17757     17760     17762     17754     17757     17760     17763
     17755     17754     17757     17758     17755     17754     17757     17759
     17755     17754     17757     17760     17756     17754     17757     17758
     17756     17754     17757     17759     17756     17754     17757     17760
     17757     17760     17763     17764     17757     17760     17763     17765
     17757     17760     17763     17768     17758     17757     17760     17761
     17758     17757     17760     17762     17758     17757     17760     17763
     17759     17757     17760     17761     17759     17757     17760     17762
     17759     17757     17760     17763     17760     17763     17765     17766
     17760     17763     17765     17767     17760     17763     17765     17768
     17760     17763     17768     17765     17760     17763     17768     17769
     17760     17763     17768     17770     17761     17760     17763     17764
     17761     17760     17763     17765     17761     17760     17763     17768
     17762     17760     17763     17764     17762     17760     17763     17765
     17762     17760     17763     17768     17763     17765     17768     17769
     17763     17765     17768     17770     17763     17768     17765     17766
     17763     17768     17765     17767     17763     17768     17770     17771
     17763     17768     17770     17772     17763     17768     17770     17773
     17764     17763     17765     17766     17764     17763     17765     17767
     17764     17763     17765     17768     17764     17763     17768     17765
     17764     17763     17768     17769     17764     17763     17768     17770
     17765     17763     17768     17769     17765     17763     17768     17770
     17765     17768     17770     17771     17765     17768     17770     17772
     17765     17768     17770     17773     17766     17765     17763     17768
     17766     17765     17768     17769     17766     17765     17768     17770
     17767     17765     17763     17768     17767     17765     17768     17769
     17767     17765     17768     17770     17768     17770     17773     17774
     17768     17770     17773     17775     17768     17770     17773     17776
     17769     17768     17770     17771     17769     17768     17770     17772
     17769     17768     17770     17773     17770     17773     17776     17777
     17770     17773     17776     17778     17770     17773     17776     17779
     17771     17770     17773     17774     17771     17770     17773     17775
     17771     17770     17773     17776     17772     17770     17773     17774
     17772     17770     17773     17775     17772     17770     17773     17776
     17773     17776     17779     17780     17773     17776     17779     17781
     17773     17776     17779     17782     17774     17773     17776     17777
     17774     17773     17776     17778     17774     17773     17776     17779
     17775     17773     17776     17777     17775     17773     17776     17778
     17775     17773     17776     17779     17776     17779     17782     17783
     17776     17779     17782     17784     17776     17779     17782     17785
     17777     17776     17779     17780     17777     17776     17779     17781
     17777     17776     17779     17782     17778     17776     17779     17780
     17778     17776     17779     17781     17778     17776     17779     17782
     17779     17782     17785     17786     17779     17782     17785     17787
     17779     17782     17785     17788     17780     17779     17782     17783
     17780     17779     17782     17784     17780     17779     17782     17785
     17781     17779     17782     17783     17781     17779     17782     17784
     17781     17779     17782     17785     17783     17782     17785     17786
     17783     17782     17785     17787     17783     17782     17785     17788
     17784     17782     17785     17786     17784     17782     17785     17787
     17784     17782     17785     17788     17789     17792     17795     17796
     17789     17792     17795     17797     17789     17792     17795     17798
     17790     17789     17792     17793     17790     17789     17792     17794
     17790     17789     17792     17795     17791     17789     17792     17793
     17791     17789     17792     17794     17791     17789     17792     17795
     17792     17795     17798     17799     17792     17795     17798     17800
     17792     17795     17798     17801     17793     17792     17795     17796
     17793     17792     17795     17797     17793     17792     17795     17798
     17794     17792     17795     17796     17794     17792     17795     17797
     17794     17792     17795     17798     17795     17798     17801     17802
     17795     17798     17801     17803     17795     17798     17801     17804
     17796     17795     17798     17799     17796     17795     17798     17800
     17796     17795     17798     17801     17797     17795     17798     17799
     17797     17795     17798     17800     17797     17795     17798     17801
     17798     17801     17804     17805     17798     17801     17804     17806
     17798     17801     17804     17807     17799     17798     17801     17802
     17799     17798     17801     17803     17799     17798     17801     17804
     17800     17798     17801     17802     17800     17798     17801     17803
     17800     17798     17801     17804     17801     17804     17807     17808
     17801     17804     17807     17809     17801     17804     17807     17810
     17802     17801     17804     17805     17802     17801     17804     17806
     17802     17801     17804     17807     17803     17801     17804     17805
     17803     17801     17804     17806     17803     17801     17804     17807
     17804     17807     17810     17811     17804     17807     17810     17812
     17804     17807     17810     17813     17805     17804     17807     17808
     17805     17804     17807     17809     17805     17804     17807     17810
     17806     17804     17807     17808     17806     17804     17807     17809
     17806     17804     17807     17810     17807     17810     17813     17814
     17807     17810     17813     17815     17807     17810     17813     17816
     17808     17807     17810     17811     17808     17807     17810     17812
     17808     17807     17810     17813     17809     17807     17810     17811
     17809     17807     17810     17812     17809     17807     17810     17813
     17810     17813     17816     17817     17810     17813     17816     17818
     17810     17813     17816     17819     17811     17810     17813     17814
     17811     17810     17813     17815     17811     17810     17813     17816
     17812     17810     17813     17814     17812     17810     17813     17815
     17812     17810     17813     17816     17813     17816     17819     17820
     17813     17816     17819     17821     17813     17816     17819     17822
     17814     17813     17816     17817     17814     17813     17816     17818
     17814     17813     17816     17819     17815     17813     17816     17817
     17815     17813     17816     17818     17815     17813     17816     17819
     17816     17819     17822     17823     17816     17819     17822     17824
     17816     17819     17822     17825     17817     17816     17819     17820
     17817     17816     17819     17821     17817     17816     17819     17822
     17818     17816     17819     17820     17818     17816     17819     17821
     17818     17816     17819     17822     17819     17822     17825     17826
     17819     17822     17825     17827     17819     17822     17825     17828
     17820     17819     17822     17823     17820     17819     17822     17824
     17820     17819     17822     17825     17821     17819     17822     17823
     17821     17819     17822     17824     17821     17819     17822     17825
     17822     17825     17828     17829     17822     17825     17828     17830
     17822     17825     17828     17831     17823     17822     17825     17826
     17823     17822     17825     17827     17823     17822     17825     17828
     17824     17822     17825     17826     17824     17822     17825     17827
     17824     17822     17825     17828     17826     17825     17828     17829
     17826     17825     17828     17830     17826     17825     17828     17831
     17827     17825     17828     17829     17827     17825     17828     17830
     17827     17825     17828     17831     17832     17836     17839     17840
     17832     17836     17839     17841     17832     17836     17839     17846
     17833     17832     17836     17837     17833     17832     17836     17838
     17833     17832     17836     17839     17834     17832     17836     17837
     17834     17832     17836     17838     17834     17832     17836     17839
     17835     17832     17836     17837     17835     17832     17836     17838
     17835     17832     17836     17839     17836     17839     17846     17842
     17837     17836     17839     17840     17837     17836     17839     17841
     17837     17836     17839     17846     17838     17836     17839     17840
     17838     17836     17839     17841     17838     17836     17839     17846
     17839     17846     17842     17843     17839     17846     17842     17844
     17839     17846     17842     17845     17840     17839     17846     17842
     17841     17839     17846     17842     17842     17845     17847     17848
     17842     17845     17847     17849     17842     17845     17847     17850
     17843     17842     17845     17847     17844     17842     17845     17847
     17845     17847     17850     17851     17845     17847     17850     17852
     17845     17847     17850     17858     17846     17842     17845     17847
     17847     17850     17852     17853     17847     17850     17858     17859
     17847     17850     17858     17860     17847     17850     17858     17861
     17848     17847     17850     17851     17848     17847     17850     17852
     17848     17847     17850     17858     17849     17847     17850     17851
     17849     17847     17850     17852     17849     17847     17850     17858
     17850     17852     17853     17854     17850     17852     17853     17855
     17850     17858     17861     17862     17851     17850     17852     17853
     17851     17850     17858     17859     17851     17850     17858     17860
     17851     17850     17858     17861     17852     17850     17858     17859
     17852     17850     17858     17860     17852     17850     17858     17861
     17852     17853     17855     17856     17852     17853     17855     17857
     17852     17853     17855     17867     17853     17852     17850     17858
     17853     17855     17867     17868     17853     17855     17867     17869
     17853     17855     17867     17870     17854     17853     17855     17856
     17854     17853     17855     17857     17854     17853     17855     17867
     17855     17867     17870     17871     17855     17867     17870     17872
     17855     17867     17870     17873     17856     17855     17867     17868
     17856     17855     17867     17869     17856     17855     17867     17870
     17857     17855     17867     17868     17857     17855     17867     17869
     17857     17855     17867     17870     17858     17861     17862     17863
     17858     17861     17862     17864     17859     17858     17861     17862
     17860     17858     17861     17862     17861     17862     17864     17865
     17861     17862     17864     17866     17861     17862     17864     17911
     17862     17864     17911     17912     17862     17864     17911     17913
     17862     17864     17911     17914     17863     17862     17864     17865
     17863     17862     17864     17866     17863     17862     17864     17911
     17864     17911     17914     17915     17864     17911     17914     17916
     17864     17911     17914     17917     17865     17864     17911     17912
     17865     17864     17911     17913     17865     17864     17911     17914
     17866     17864     17911     17912     17866     17864     17911     17913
     17866     17864     17911     17914     17867     17870     17873     17874
     17867     17870     17873     17875     17867     17870     17873     17876
     17868     17867     17870     17871     17868     17867     17870     17872
     17868     17867     17870     17873     17869     17867     17870     17871
     17869     17867     17870     17872     17869     17867     17870     17873
     17870     17873     17876     17877     17870     17873     17876     17878
     17870     17873     17876     17879     17871     17870     17873     17874
     17871     17870     17873     17875     17871     17870     17873     17876
     17872     17870     17873     17874     17872     17870     17873     17875
     17872     17870     17873     17876     17873     17876     17879     17880
     17873     17876     17879     17881     17873     17876     17879     17882
     17874     17873     17876     17877     17874     17873     17876     17878
     17874     17873     17876     17879     17875     17873     17876     17877
     17875     17873     17876     17878     17875     17873     17876     17879
     17876     17879     17882     17883     17876     17879     17882     17884
     17876     17879     17882     17885     17877     17876     17879     17880
     17877     17876     17879     17881     17877     17876     17879     17882
     17878     17876     17879     17880     17878     17876     17879     17881
     17878     17876     17879     17882     17879     17882     17885     17886
     17879     17882     17885     17887     17879     17882     17885     17890
     17880     17879     17882     17883     17880     17879     17882     17884
     17880     17879     17882     17885     17881     17879     17882     17883
     17881     17879     17882     17884     17881     17879     17882     17885
     17882     17885     17887     17888     17882     17885     17887     17889
     17882     17885     17887     17890     17882     17885     17890     17887
     17882     17885     17890     17891     17882     17885     17890     17892
     17883     17882     17885     17886     17883     17882     17885     17887
     17883     17882     17885     17890     17884     17882     17885     17886
     17884     17882     17885     17887     17884     17882     17885     17890
     17885     17887     17890     17891     17885     17887     17890     17892
     17885     17890     17887     17888     17885     17890     17887     17889
     17885     17890     17892     17893     17885     17890     17892     17894
     17885     17890     17892     17895     17886     17885     17887     17888
     17886     17885     17887     17889     17886     17885     17887     17890
     17886     17885     17890     17887     17886     17885     17890     17891
     17886     17885     17890     17892     17887     17885     17890     17891
     17887     17885     17890     17892     17887     17890     17892     17893
     17887     17890     17892     17894     17887     17890     17892     17895
     17888     17887     17885     17890     17888     17887     17890     17891
     17888     17887     17890     17892     17889     17887     17885     17890
     17889     17887     17890     17891     17889     17887     17890     17892
     17890     17892     17895     17896     17890     17892     17895     17897
     17890     17892     17895     17898     17891     17890     17892     17893
     17891     17890     17892     17894     17891     17890     17892     17895
     17892     17895     17898     17899     17892     17895     17898     17900
     17892     17895     17898     17901     17893     17892     17895     17896
     17893     17892     17895     17897     17893     17892     17895     17898
     17894     17892     17895     17896     17894     17892     17895     17897
     17894     17892     17895     17898     17895     17898     17901     17902
     17895     17898     17901     17903     17895     17898     17901     17904
     17896     17895     17898     17899     17896     17895     17898     17900
     17896     17895     17898     17901     17897     17895     17898     17899
     17897     17895     17898     17900     17897     17895     17898     17901
     17898     17901     17904     17905     17898     17901     17904     17906
     17898     17901     17904     17907     17899     17898     17901     17902
     17899     17898     17901     17903     17899     17898     17901     17904
     17900     17898     17901     17902     17900     17898     17901     17903
     17900     17898     17901     17904     17901     17904     17907     17908
     17901     17904     17907     17909     17901     17904     17907     17910
     17902     17901     17904     17905     17902     17901     17904     17906
     17902     17901     17904     17907     17903     17901     17904     17905
     17903     17901     17904     17906     17903     17901     17904     17907
     17905     17904     17907     17908     17905     17904     17907     17909
     17905     17904     17907     17910     17906     17904     17907     17908
     17906     17904     17907     17909     17906     17904     17907     17910
     17911     17914     17917     17918     17911     17914     17917     17919
     17911     17914     17917     17920     17912     17911     17914     17915
     17912     17911     17914     17916     17912     17911     17914     17917
     17913     17911     17914     17915     17913     17911     17914     17916
     17913     17911     17914     17917     17914     17917     17920     17921
     17914     17917     17920     17922     17914     17917     17920     17923
     17915     17914     17917     17918     17915     17914     17917     17919
     17915     17914     17917     17920     17916     17914     17917     17918
     17916     17914     17917     17919     17916     17914     17917     17920
     17917     17920     17923     17924     17917     17920     17923     17925
     17917     17920     17923     17926     17918     17917     17920     17921
     17918     17917     17920     17922     17918     17917     17920     17923
     17919     17917     17920     17921     17919     17917     17920     17922
     17919     17917     17920     17923     17920     17923     17926     17927
     17920     17923     17926     17928     17920     17923     17926     17929
     17921     17920     17923     17924     17921     17920     17923     17925
     17921     17920     17923     17926     17922     17920     17923     17924
     17922     17920     17923     17925     17922     17920     17923     17926
     17923     17926     17929     17930     17923     17926     17929     17931
     17923     17926     17929     17932     17924     17923     17926     17927
     17924     17923     17926     17928     17924     17923     17926     17929
     17925     17923     17926     17927     17925     17923     17926     17928
     17925     17923     17926     17929     17926     17929     17932     17933
     17926     17929     17932     17934     17926     17929     17932     17935
     17927     17926     17929     17930     17927     17926     17929     17931
     17927     17926     17929     17932     17928     17926     17929     17930
     17928     17926     17929     17931     17928     17926     17929     17932
     17929     17932     17935     17936     17929     17932     17935     17937
     17929     17932     17935     17938     17930     17929     17932     17933
     17930     17929     17932     17934     17930     17929     17932     17935
     17931     17929     17932     17933     17931     17929     17932     17934
     17931     17929     17932     17935     17932     17935     17938     17939
     17932     17935     17938     17940     17932     17935     17938     17941
     17933     17932     17935     17936     17933     17932     17935     17937
     17933     17932     17935     17938     17934     17932     17935     17936
     17934     17932     17935     17937     17934     17932     17935     17938
     17935     17938     17941     17942     17935     17938     17941     17943
     17935     17938     17941     17944     17936     17935     17938     17939
     17936     17935     17938     17940     17936     17935     17938     17941
     17937     17935     17938     17939     17937     17935     17938     17940
     17937     17935     17938     17941     17938     17941     17944     17945
     17938     17941     17944     17946     17938     17941     17944     17947
     17939     17938     17941     17942     17939     17938     17941     17943
     17939     17938     17941     17944     17940     17938     17941     17942
     17940     17938     17941     17943     17940     17938     17941     17944
     17941     17944     17947     17948     17941     17944     17947     17949
     17941     17944     17947     17950     17942     17941     17944     17945
     17942     17941     17944     17946     17942     17941     17944     17947
     17943     17941     17944     17945     17943     17941     17944     17946
     17943     17941     17944     17947     17945     17944     17947     17948
     17945     17944     17947     17949     17945     17944     17947     17950
     17946     17944     17947     17948     17946     17944     17947     17949
     17946     17944     17947     17950     17951     17955     17958     17959
     17951     17955     17958     17960     17951     17955     17958     17965
     17952     17951     17955     17956     17952     17951     17955     17957
     17952     17951     17955     17958     17953     17951     17955     17956
     17953     17951     17955     17957     17953     17951     17955     17958
     17954     17951     17955     17956     17954     17951     17955     17957
     17954     17951     17955     17958     17955     17958     17965     17961
     17956     17955     17958     17959     17956     17955     17958     17960
     17956     17955     17958     17965     17957     17955     17958     17959
     17957     17955     17958     17960     17957     17955     17958     17965
     17958     17965     17961     17962     17958     17965     17961     17963
     17958     17965     17961     17964     17959     17958     17965     17961
     17960     17958     17965     17961     17961     17964     17966     17967
     17961     17964     17966     17968     17961     17964     17966     17969
     17962     17961     17964     17966     17963     17961     17964     17966
     17964     17966     17969     17970     17964     17966     17969     17971
     17964     17966     17969     17977     17965     17961     17964     17966
     17966     17969     17971     17972     17966     17969     17977     17978
     17966     17969     17977     17979     17966     17969     17977     17980
     17967     17966     17969     17970     17967     17966     17969     17971
     17967     17966     17969     17977     17968     17966     17969     17970
     17968     17966     17969     17971     17968     17966     17969     17977
     17969     17971     17972     17973     17969     17971     17972     17974
     17969     17977     17980     17981     17970     17969     17971     17972
     17970     17969     17977     17978     17970     17969     17977     17979
     17970     17969     17977     17980     17971     17969     17977     17978
     17971     17969     17977     17979     17971     17969     17977     17980
     17971     17972     17974     17975     17971     17972     17974     17976
     17971     17972     17974     17986     17972     17971     17969     17977
     17972     17974     17986     17987     17972     17974     17986     17988
     17972     17974     17986     17989     17973     17972     17974     17975
     17973     17972     17974     17976     17973     17972     17974     17986
     17974     17986     17989     17990     17974     17986     17989     17991
     17974     17986     17989     17992     17975     17974     17986     17987
     17975     17974     17986     17988     17975     17974     17986     17989
     17976     17974     17986     17987     17976     17974     17986     17988
     17976     17974     17986     17989     17977     17980     17981     17982
     17977     17980     17981     17983     17978     17977     17980     17981
     17979     17977     17980     17981     17980     17981     17983     17984
     17980     17981     17983     17985     17980     17981     17983     18030
     17981     17983     18030     18031     17981     17983     18030     18032
     17981     17983     18030     18033     17982     17981     17983     17984
     17982     17981     17983     17985     17982     17981     17983     18030
     17983     18030     18033     18034     17983     18030     18033     18035
     17983     18030     18033     18036     17984     17983     18030     18031
     17984     17983     18030     18032     17984     17983     18030     18033
     17985     17983     18030     18031     17985     17983     18030     18032
     17985     17983     18030     18033     17986     17989     17992     17993
     17986     17989     17992     17994     17986     17989     17992     17995
     17987     17986     17989     17990     17987     17986     17989     17991
     17987     17986     17989     17992     17988     17986     17989     17990
     17988     17986     17989     17991     17988     17986     17989     17992
     17989     17992     17995     17996     17989     17992     17995     17997
     17989     17992     17995     17998     17990     17989     17992     17993
     17990     17989     17992     17994     17990     17989     17992     17995
     17991     17989     17992     17993     17991     17989     17992     17994
     17991     17989     17992     17995     17992     17995     17998     17999
     17992     17995     17998     18000     17992     17995     17998     18001
     17993     17992     17995     17996     17993     17992     17995     17997
     17993     17992     17995     17998     17994     17992     17995     17996
     17994     17992     17995     17997     17994     17992     17995     17998
     17995     17998     18001     18002     17995     17998     18001     18003
     17995     17998     18001     18004     17996     17995     17998     17999
     17996     17995     17998     18000     17996     17995     17998     18001
     17997     17995     17998     17999     17997     17995     17998     18000
     17997     17995     17998     18001     17998     18001     18004     18005
     17998     18001     18004     18006     17998     18001     18004     18009
     17999     17998     18001     18002     17999     17998     18001     18003
     17999     17998     18001     18004     18000     17998     18001     18002
     18000     17998     18001     18003     18000     17998     18001     18004
     18001     18004     18006     18007     18001     18004     18006     18008
     18001     18004     18006     18009     18001     18004     18009     18006
     18001     18004     18009     18010     18001     18004     18009     18011
     18002     18001     18004     18005     18002     18001     18004     18006
     18002     18001     18004     18009     18003     18001     18004     18005
     18003     18001     18004     18006     18003     18001     18004     18009
     18004     18006     18009     18010     18004     18006     18009     18011
     18004     18009     18006     18007     18004     18009     18006     18008
     18004     18009     18011     18012     18004     18009     18011     18013
     18004     18009     18011     18014     18005     18004     18006     18007
     18005     18004     18006     18008     18005     18004     18006     18009
     18005     18004     18009     18006     18005     18004     18009     18010
     18005     18004     18009     18011     18006     18004     18009     18010
     18006     18004     18009     18011     18006     18009     18011     18012
     18006     18009     18011     18013     18006     18009     18011     18014
     18007     18006     18004     18009     18007     18006     18009     18010
     18007     18006     18009     18011     18008     18006     18004     18009
     18008     18006     18009     18010     18008     18006     18009     18011
     18009     18011     18014     18015     18009     18011     18014     18016
     18009     18011     18014     18017     18010     18009     18011     18012
     18010     18009     18011     18013     18010     18009     18011     18014
     18011     18014     18017     18018     18011     18014     18017     18019
     18011     18014     18017     18020     18012     18011     18014     18015
     18012     18011     18014     18016     18012     18011     18014     18017
     18013     18011     18014     18015     18013     18011     18014     18016
     18013     18011     18014     18017     18014     18017     18020     18021
     18014     18017     18020     18022     18014     18017     18020     18023
     18015     18014     18017     18018     18015     18014     18017     18019
     18015     18014     18017     18020     18016     18014     18017     18018
     18016     18014     18017     18019     18016     18014     18017     18020
     18017     18020     18023     18024     18017     18020     18023     18025
     18017     18020     18023     18026     18018     18017     18020     18021
     18018     18017     18020     18022     18018     18017     18020     18023
     18019     18017     18020     18021     18019     18017     18020     18022
     18019     18017     18020     18023     18020     18023     18026     18027
     18020     18023     18026     18028     18020     18023     18026     18029
     18021     18020     18023     18024     18021     18020     18023     18025
     18021     18020     18023     18026     18022     18020     18023     18024
     18022     18020     18023     18025     18022     18020     18023     18026
     18024     18023     18026     18027     18024     18023     18026     18028
     18024     18023     18026     18029     18025     18023     18026     18027
     18025     18023     18026     18028     18025     18023     18026     18029
     18030     18033     18036     18037     18030     18033     18036     18038
     18030     18033     18036     18039     18031     18030     18033     18034
     18031     18030     18033     18035     18031     18030     18033     18036
     18032     18030     18033     18034     18032     18030     18033     18035
     18032     18030     18033     18036     18033     18036     18039     18040
     18033     18036     18039     18041     18033     18036     18039     18042
     18034     18033     18036     18037     18034     18033     18036     18038
     18034     18033     18036     18039     18035     18033     18036     18037
     18035     18033     18036     18038     18035     18033     18036     18039
     18036     18039     18042     18043     18036     18039     18042     18044
     18036     18039     18042     18045     18037     18036     18039     18040
     18037     18036     18039     18041     18037     18036     18039     18042
     18038     18036     18039     18040     18038     18036     18039     18041
     18038     18036     18039     18042     18039     18042     18045     18046
     18039     18042     18045     18047     18039     18042     18045     18048
     18040     18039     18042     18043     18040     18039     18042     18044
     18040     18039     18042     18045     18041     18039     18042     18043
     18041     18039     18042     18044     18041     18039     18042     18045
     18042     18045     18048     18049     18042     18045     18048     18050
     18042     18045     18048     18051     18043     18042     18045     18046
     18043     18042     18045     18047     18043     18042     18045     18048
     18044     18042     18045     18046     18044     18042     18045     18047
     18044     18042     18045     18048     18045     18048     18051     18052
     18045     18048     18051     18053     18045     18048     18051     18054
     18046     18045     18048     18049     18046     18045     18048     18050
     18046     18045     18048     18051     18047     18045     18048     18049
     18047     18045     18048     18050     18047     18045     18048     18051
     18048     18051     18054     18055     18048     18051     18054     18056
     18048     18051     18054     18057     18049     18048     18051     18052
     18049     18048     18051     18053     18049     18048     18051     18054
     18050     18048     18051     18052     18050     18048     18051     18053
     18050     18048     18051     18054     18051     18054     18057     18058
     18051     18054     18057     18059     18051     18054     18057     18060
     18052     18051     18054     18055     18052     18051     18054     18056
     18052     18051     18054     18057     18053     18051     18054     18055
     18053     18051     18054     18056     18053     18051     18054     18057
     18054     18057     18060     18061     18054     18057     18060     18062
     18054     18057     18060     18063     18055     18054     18057     18058
     18055     18054     18057     18059     18055     18054     18057     18060
     18056     18054     18057     18058     18056     18054     18057     18059
     18056     18054     18057     18060     18057     18060     18063     18064
     18057     18060     18063     18065     18057     18060     18063     18066
     18058     18057     18060     18061     18058     18057     18060     18062
     18058     18057     18060     18063     18059     18057     18060     18061
     18059     18057     18060     18062     18059     18057     18060     18063
     18060     18063     18066     18067     18060     18063     18066     18068
     18060     18063     18066     18069     18061     18060     18063     18064
     18061     18060     18063     18065     18061     18060     18063     18066
     18062     18060     18063     18064     18062     18060     18063     18065
     18062     18060     18063     18066     18064     18063     18066     18067
     18064     18063     18066     18068     18064     18063     18066     18069
     18065     18063     18066     18067     18065     18063     18066     18068
     18065     18063     18066     18069     18070     18074     18077     18078
     18070     18074     18077     18079     18070     18074     18077     18084
     18071     18070     18074     18075     18071     18070     18074     18076
     18071     18070     18074     18077     18072     18070     18074     18075
     18072     18070     18074     18076     18072     18070     18074     18077
     18073     18070     18074     18075     18073     18070     18074     18076
     18073     18070     18074     18077     18074     18077     18084     18080
     18075     18074     18077     18078     18075     18074     18077     18079
     18075     18074     18077     18084     18076     18074     18077     18078
     18076     18074     18077     18079     18076     18074     18077     18084
     18077     18084     18080     18081     18077     18084     18080     18082
     18077     18084     18080     18083     18078     18077     18084     18080
     18079     18077     18084     18080     18080     18083     18085     18086
     18080     18083     18085     18087     18080     18083     18085     18088
     18081     18080     18083     18085     18082     18080     18083     18085
     18083     18085     18088     18089     18083     18085     18088     18090
     18083     18085     18088     18096     18084     18080     18083     18085
     18085     18088     18090     18091     18085     18088     18096     18097
     18085     18088     18096     18098     18085     18088     18096     18099
     18086     18085     18088     18089     18086     18085     18088     18090
     18086     18085     18088     18096     18087     18085     18088     18089
     18087     18085     18088     18090     18087     18085     18088     18096
     18088     18090     18091     18092     18088     18090     18091     18093
     18088     18096     18099     18100     18089     18088     18090     18091
     18089     18088     18096     18097     18089     18088     18096     18098
     18089     18088     18096     18099     18090     18088     18096     18097
     18090     18088     18096     18098     18090     18088     18096     18099
     18090     18091     18093     18094     18090     18091     18093     18095
     18090     18091     18093     18105     18091     18090     18088     18096
     18091     18093     18105     18106     18091     18093     18105     18107
     18091     18093     18105     18108     18092     18091     18093     18094
     18092     18091     18093     18095     18092     18091     18093     18105
     18093     18105     18108     18109     18093     18105     18108     18110
     18093     18105     18108     18111     18094     18093     18105     18106
     18094     18093     18105     18107     18094     18093     18105     18108
     18095     18093     18105     18106     18095     18093     18105     18107
     18095     18093     18105     18108     18096     18099     18100     18101
     18096     18099     18100     18102     18097     18096     18099     18100
     18098     18096     18099     18100     18099     18100     18102     18103
     18099     18100     18102     18104     18099     18100     18102     18149
     18100     18102     18149     18150     18100     18102     18149     18151
     18100     18102     18149     18152     18101     18100     18102     18103
     18101     18100     18102     18104     18101     18100     18102     18149
     18102     18149     18152     18153     18102     18149     18152     18154
     18102     18149     18152     18155     18103     18102     18149     18150
     18103     18102     18149     18151     18103     18102     18149     18152
     18104     18102     18149     18150     18104     18102     18149     18151
     18104     18102     18149     18152     18105     18108     18111     18112
     18105     18108     18111     18113     18105     18108     18111     18114
     18106     18105     18108     18109     18106     18105     18108     18110
     18106     18105     18108     18111     18107     18105     18108     18109
     18107     18105     18108     18110     18107     18105     18108     18111
     18108     18111     18114     18115     18108     18111     18114     18116
     18108     18111     18114     18117     18109     18108     18111     18112
     18109     18108     18111     18113     18109     18108     18111     18114
     18110     18108     18111     18112     18110     18108     18111     18113
     18110     18108     18111     18114     18111     18114     18117     18118
     18111     18114     18117     18119     18111     18114     18117     18120
     18112     18111     18114     18115     18112     18111     18114     18116
     18112     18111     18114     18117     18113     18111     18114     18115
     18113     18111     18114     18116     18113     18111     18114     18117
     18114     18117     18120     18121     18114     18117     18120     18122
     18114     18117     18120     18123     18115     18114     18117     18118
     18115     18114     18117     18119     18115     18114     18117     18120
     18116     18114     18117     18118     18116     18114     18117     18119
     18116     18114     18117     18120     18117     18120     18123     18124
     18117     18120     18123     18125     18117     18120     18123     18128
     18118     18117     18120     18121     18118     18117     18120     18122
     18118     18117     18120     18123     18119     18117     18120     18121
     18119     18117     18120     18122     18119     18117     18120     18123
     18120     18123     18125     18126     18120     18123     18125     18127
     18120     18123     18125     18128     18120     18123     18128     18125
     18120     18123     18128     18129     18120     18123     18128     18130
     18121     18120     18123     18124     18121     18120     18123     18125
     18121     18120     18123     18128     18122     18120     18123     18124
     18122     18120     18123     18125     18122     18120     18123     18128
     18123     18125     18128     18129     18123     18125     18128     18130
     18123     18128     18125     18126     18123     18128     18125     18127
     18123     18128     18130     18131     18123     18128     18130     18132
     18123     18128     18130     18133     18124     18123     18125     18126
     18124     18123     18125     18127     18124     18123     18125     18128
     18124     18123     18128     18125     18124     18123     18128     18129
     18124     18123     18128     18130     18125     18123     18128     18129
     18125     18123     18128     18130     18125     18128     18130     18131
     18125     18128     18130     18132     18125     18128     18130     18133
     18126     18125     18123     18128     18126     18125     18128     18129
     18126     18125     18128     18130     18127     18125     18123     18128
     18127     18125     18128     18129     18127     18125     18128     18130
     18128     18130     18133     18134     18128     18130     18133     18135
     18128     18130     18133     18136     18129     18128     18130     18131
     18129     18128     18130     18132     18129     18128     18130     18133
     18130     18133     18136     18137     18130     18133     18136     18138
     18130     18133     18136     18139     18131     18130     18133     18134
     18131     18130     18133     18135     18131     18130     18133     18136
     18132     18130     18133     18134     18132     18130     18133     18135
     18132     18130     18133     18136     18133     18136     18139     18140
     18133     18136     18139     18141     18133     18136     18139     18142
     18134     18133     18136     18137     18134     18133     18136     18138
     18134     18133     18136     18139     18135     18133     18136     18137
     18135     18133     18136     18138     18135     18133     18136     18139
     18136     18139     18142     18143     18136     18139     18142     18144
     18136     18139     18142     18145     18137     18136     18139     18140
     18137     18136     18139     18141     18137     18136     18139     18142
     18138     18136     18139     18140     18138     18136     18139     18141
     18138     18136     18139     18142     18139     18142     18145     18146
     18139     18142     18145     18147     18139     18142     18145     18148
     18140     18139     18142     18143     18140     18139     18142     18144
     18140     18139     18142     18145     18141     18139     18142     18143
     18141     18139     18142     18144     18141     18139     18142     18145
     18143     18142     18145     18146     18143     18142     18145     18147
     18143     18142     18145     18148     18144     18142     18145     18146
     18144     18142     18145     18147     18144     18142     18145     18148
     18149     18152     18155     18156     18149     18152     18155     18157
     18149     18152     18155     18158     18150     18149     18152     18153
     18150     18149     18152     18154     18150     18149     18152     18155
     18151     18149     18152     18153     18151     18149     18152     18154
     18151     18149     18152     18155     18152     18155     18158     18159
     18152     18155     18158     18160     18152     18155     18158     18161
     18153     18152     18155     18156     18153     18152     18155     18157
     18153     18152     18155     18158     18154     18152     18155     18156
     18154     18152     18155     18157     18154     18152     18155     18158
     18155     18158     18161     18162     18155     18158     18161     18163
     18155     18158     18161     18164     18156     18155     18158     18159
     18156     18155     18158     18160     18156     18155     18158     18161
     18157     18155     18158     18159     18157     18155     18158     18160
     18157     18155     18158     18161     18158     18161     18164     18165
     18158     18161     18164     18166     18158     18161     18164     18167
     18159     18158     18161     18162     18159     18158     18161     18163
     18159     18158     18161     18164     18160     18158     18161     18162
     18160     18158     18161     18163     18160     18158     18161     18164
     18161     18164     18167     18168     18161     18164     18167     18169
     18161     18164     18167     18170     18162     18161     18164     18165
     18162     18161     18164     18166     18162     18161     18164     18167
     18163     18161     18164     18165     18163     18161     18164     18166
     18163     18161     18164     18167     18164     18167     18170     18171
     18164     18167     18170     18172     18164     18167     18170     18173
     18165     18164     18167     18168     18165     18164     18167     18169
     18165     18164     18167     18170     18166     18164     18167     18168
     18166     18164     18167     18169     18166     18164     18167     18170
     18167     18170     18173     18174     18167     18170     18173     18175
     18167     18170     18173     18176     18168     18167     18170     18171
     18168     18167     18170     18172     18168     18167     18170     18173
     18169     18167     18170     18171     18169     18167     18170     18172
     18169     18167     18170     18173     18170     18173     18176     18177
     18170     18173     18176     18178     18170     18173     18176     18179
     18171     18170     18173     18174     18171     18170     18173     18175
     18171     18170     18173     18176     18172     18170     18173     18174
     18172     18170     18173     18175     18172     18170     18173     18176
     18173     18176     18179     18180     18173     18176     18179     18181
     18173     18176     18179     18182     18174     18173     18176     18177
     18174     18173     18176     18178     18174     18173     18176     18179
     18175     18173     18176     18177     18175     18173     18176     18178
     18175     18173     18176     18179     18176     18179     18182     18183
     18176     18179     18182     18184     18176     18179     18182     18185
     18177     18176     18179     18180     18177     18176     18179     18181
     18177     18176     18179     18182     18178     18176     18179     18180
     18178     18176     18179     18181     18178     18176     18179     18182
     18179     18182     18185     18186     18179     18182     18185     18187
     18179     18182     18185     18188     18180     18179     18182     18183
     18180     18179     18182     18184     18180     18179     18182     18185
     18181     18179     18182     18183     18181     18179     18182     18184
     18181     18179     18182     18185     18182     18185     18188     18189
     18182     18185     18188     18190     18182     18185     18188     18191
     18183     18182     18185     18186     18183     18182     18185     18187
     18183     18182     18185     18188     18184     18182     18185     18186
     18184     18182     18185     18187     18184     18182     18185     18188
     18186     18185     18188     18189     18186     18185     18188     18190
     18186     18185     18188     18191     18187     18185     18188     18189
     18187     18185     18188     18190     18187     18185     18188     18191
     18192     18196     18199     18200     18192     18196     18199     18201
     18192     18196     18199     18206     18193     18192     18196     18197
     18193     18192     18196     18198     18193     18192     18196     18199
     18194     18192     18196     18197     18194     18192     18196     18198
     18194     18192     18196     18199     18195     18192     18196     18197
     18195     18192     18196     18198     18195     18192     18196     18199
     18196     18199     18206     18202     18197     18196     18199     18200
     18197     18196     18199     18201     18197     18196     18199     18206
     18198     18196     18199     18200     18198     18196     18199     18201
     18198     18196     18199     18206     18199     18206     18202     18203
     18199     18206     18202     18204     18199     18206     18202     18205
     18200     18199     18206     18202     18201     18199     18206     18202
     18202     18205     18207     18208     18202     18205     18207     18209
     18202     18205     18207     18210     18203     18202     18205     18207
     18204     18202     18205     18207     18205     18207     18210     18211
     18205     18207     18210     18212     18205     18207     18210     18218
     18206     18202     18205     18207     18207     18210     18212     18213
     18207     18210     18218     18219     18207     18210     18218     18220
     18207     18210     18218     18221     18208     18207     18210     18211
     18208     18207     18210     18212     18208     18207     18210     18218
     18209     18207     18210     18211     18209     18207     18210     18212
     18209     18207     18210     18218     18210     18212     18213     18214
     18210     18212     18213     18215     18210     18218     18221     18222
     18211     18210     18212     18213     18211     18210     18218     18219
     18211     18210     18218     18220     18211     18210     18218     18221
     18212     18210     18218     18219     18212     18210     18218     18220
     18212     18210     18218     18221     18212     18213     18215     18216
     18212     18213     18215     18217     18212     18213     18215     18227
     18213     18212     18210     18218     18213     18215     18227     18228
     18213     18215     18227     18229     18213     18215     18227     18230
     18214     18213     18215     18216     18214     18213     18215     18217
     18214     18213     18215     18227     18215     18227     18230     18231
     18215     18227     18230     18232     18215     18227     18230     18233
     18216     18215     18227     18228     18216     18215     18227     18229
     18216     18215     18227     18230     18217     18215     18227     18228
     18217     18215     18227     18229     18217     18215     18227     18230
     18218     18221     18222     18223     18218     18221     18222     18224
     18219     18218     18221     18222     18220     18218     18221     18222
     18221     18222     18224     18225     18221     18222     18224     18226
     18221     18222     18224     18271     18222     18224     18271     18272
     18222     18224     18271     18273     18222     18224     18271     18274
     18223     18222     18224     18225     18223     18222     18224     18226
     18223     18222     18224     18271     18224     18271     18274     18275
     18224     18271     18274     18276     18224     18271     18274     18277
     18225     18224     18271     18272     18225     18224     18271     18273
     18225     18224     18271     18274     18226     18224     18271     18272
     18226     18224     18271     18273     18226     18224     18271     18274
     18227     18230     18233     18234     18227     18230     18233     18235
     18227     18230     18233     18236     18228     18227     18230     18231
     18228     18227     18230     18232     18228     18227     18230     18233
     18229     18227     18230     18231     18229     18227     18230     18232
     18229     18227     18230     18233     18230     18233     18236     18237
     18230     18233     18236     18238     18230     18233     18236     18239
     18231     18230     18233     18234     18231     18230     18233     18235
     18231     18230     18233     18236     18232     18230     18233     18234
     18232     18230     18233     18235     18232     18230     18233     18236
     18233     18236     18239     18240     18233     18236     18239     18241
     18233     18236     18239     18242     18234     18233     18236     18237
     18234     18233     18236     18238     18234     18233     18236     18239
     18235     18233     18236     18237     18235     18233     18236     18238
     18235     18233     18236     18239     18236     18239     18242     18243
     18236     18239     18242     18244     18236     18239     18242     18245
     18237     18236     18239     18240     18237     18236     18239     18241
     18237     18236     18239     18242     18238     18236     18239     18240
     18238     18236     18239     18241     18238     18236     18239     18242
     18239     18242     18245     18246     18239     18242     18245     18247
     18239     18242     18245     18250     18240     18239     18242     18243
     18240     18239     18242     18244     18240     18239     18242     18245
     18241     18239     18242     18243     18241     18239     18242     18244
     18241     18239     18242     18245     18242     18245     18247     18248
     18242     18245     18247     18249     18242     18245     18247     18250
     18242     18245     18250     18247     18242     18245     18250     18251
     18242     18245     18250     18252     18243     18242     18245     18246
     18243     18242     18245     18247     18243     18242     18245     18250
     18244     18242     18245     18246     18244     18242     18245     18247
     18244     18242     18245     18250     18245     18247     18250     18251
     18245     18247     18250     18252     18245     18250     18247     18248
     18245     18250     18247     18249     18245     18250     18252     18253
     18245     18250     18252     18254     18245     18250     18252     18255
     18246     18245     18247     18248     18246     18245     18247     18249
     18246     18245     18247     18250     18246     18245     18250     18247
     18246     18245     18250     18251     18246     18245     18250     18252
     18247     18245     18250     18251     18247     18245     18250     18252
     18247     18250     18252     18253     18247     18250     18252     18254
     18247     18250     18252     18255     18248     18247     18245     18250
     18248     18247     18250     18251     18248     18247     18250     18252
     18249     18247     18245     18250     18249     18247     18250     18251
     18249     18247     18250     18252     18250     18252     18255     18256
     18250     18252     18255     18257     18250     18252     18255     18258
     18251     18250     18252     18253     18251     18250     18252     18254
     18251     18250     18252     18255     18252     18255     18258     18259
     18252     18255     18258     18260     18252     18255     18258     18261
     18253     18252     18255     18256     18253     18252     18255     18257
     18253     18252     18255     18258     18254     18252     18255     18256
     18254     18252     18255     18257     18254     18252     18255     18258
     18255     18258     18261     18262     18255     18258     18261     18263
     18255     18258     18261     18264     18256     18255     18258     18259
     18256     18255     18258     18260     18256     18255     18258     18261
     18257     18255     18258     18259     18257     18255     18258     18260
     18257     18255     18258     18261     18258     18261     18264     18265
     18258     18261     18264     18266     18258     18261     18264     18267
     18259     18258     18261     18262     18259     18258     18261     18263
     18259     18258     18261     18264     18260     18258     18261     18262
     18260     18258     18261     18263     18260     18258     18261     18264
     18261     18264     18267     18268     18261     18264     18267     18269
     18261     18264     18267     18270     18262     18261     18264     18265
     18262     18261     18264     18266     18262     18261     18264     18267
     18263     18261     18264     18265     18263     18261     18264     18266
     18263     18261     18264     18267     18265     18264     18267     18268
     18265     18264     18267     18269     18265     18264     18267     18270
     18266     18264     18267     18268     18266     18264     18267     18269
     18266     18264     18267     18270     18271     18274     18277     18278
     18271     18274     18277     18279     18271     18274     18277     18280
     18272     18271     18274     18275     18272     18271     18274     18276
     18272     18271     18274     18277     18273     18271     18274     18275
     18273     18271     18274     18276     18273     18271     18274     18277
     18274     18277     18280     18281     18274     18277     18280     18282
     18274     18277     18280     18283     18275     18274     18277     18278
     18275     18274     18277     18279     18275     18274     18277     18280
     18276     18274     18277     18278     18276     18274     18277     18279
     18276     18274     18277     18280     18277     18280     18283     18284
     18277     18280     18283     18285     18277     18280     18283     18286
     18278     18277     18280     18281     18278     18277     18280     18282
     18278     18277     18280     18283     18279     18277     18280     18281
     18279     18277     18280     18282     18279     18277     18280     18283
     18280     18283     18286     18287     18280     18283     18286     18288
     18280     18283     18286     18289     18281     18280     18283     18284
     18281     18280     18283     18285     18281     18280     18283     18286
     18282     18280     18283     18284     18282     18280     18283     18285
     18282     18280     18283     18286     18283     18286     18289     18290
     18283     18286     18289     18291     18283     18286     18289     18292
     18284     18283     18286     18287     18284     18283     18286     18288
     18284     18283     18286     18289     18285     18283     18286     18287
     18285     18283     18286     18288     18285     18283     18286     18289
     18286     18289     18292     18293     18286     18289     18292     18294
     18286     18289     18292     18295     18287     18286     18289     18290
     18287     18286     18289     18291     18287     18286     18289     18292
     18288     18286     18289     18290     18288     18286     18289     18291
     18288     18286     18289     18292     18289     18292     18295     18296
     18289     18292     18295     18297     18289     18292     18295     18298
     18290     18289     18292     18293     18290     18289     18292     18294
     18290     18289     18292     18295     18291     18289     18292     18293
     18291     18289     18292     18294     18291     18289     18292     18295
     18292     18295     18298     18299     18292     18295     18298     18300
     18292     18295     18298     18301     18293     18292     18295     18296
     18293     18292     18295     18297     18293     18292     18295     18298
     18294     18292     18295     18296     18294     18292     18295     18297
     18294     18292     18295     18298     18295     18298     18301     18302
     18295     18298     18301     18303     18295     18298     18301     18304
     18296     18295     18298     18299     18296     18295     18298     18300
     18296     18295     18298     18301     18297     18295     18298     18299
     18297     18295     18298     18300     18297     18295     18298     18301
     18298     18301     18304     18305     18298     18301     18304     18306
     18298     18301     18304     18307     18299     18298     18301     18302
     18299     18298     18301     18303     18299     18298     18301     18304
     18300     18298     18301     18302     18300     18298     18301     18303
     18300     18298     18301     18304     18301     18304     18307     18308
     18301     18304     18307     18309     18301     18304     18307     18310
     18302     18301     18304     18305     18302     18301     18304     18306
     18302     18301     18304     18307     18303     18301     18304     18305
     18303     18301     18304     18306     18303     18301     18304     18307
     18304     18307     18310     18311     18304     18307     18310     18312
     18304     18307     18310     18313     18305     18304     18307     18308
     18305     18304     18307     18309     18305     18304     18307     18310
     18306     18304     18307     18308     18306     18304     18307     18309
     18306     18304     18307     18310     18308     18307     18310     18311
     18308     18307     18310     18312     18308     18307     18310     18313
     18309     18307     18310     18311     18309     18307     18310     18312
     18309     18307     18310     18313     18314     18318     18321     18322
     18314     18318     18321     18323     18314     18318     18321     18328
     18315     18314     18318     18319     18315     18314     18318     18320
     18315     18314     18318     18321     18316     18314     18318     18319
     18316     18314     18318     18320     18316     18314     18318     18321
     18317     18314     18318     18319     18317     18314     18318     18320
     18317     18314     18318     18321     18318     18321     18328     18324
     18319     18318     18321     18322     18319     18318     18321     18323
     18319     18318     18321     18328     18320     18318     18321     18322
     18320     18318     18321     18323     18320     18318     18321     18328
     18321     18328     18324     18325     18321     18328     18324     18326
     18321     18328     18324     18327     18322     18321     18328     18324
     18323     18321     18328     18324     18324     18327     18329     18330
     18324     18327     18329     18331     18324     18327     18329     18332
     18325     18324     18327     18329     18326     18324     18327     18329
     18327     18329     18332     18333     18327     18329     18332     18334
     18327     18329     18332     18340     18328     18324     18327     18329
     18329     18332     18334     18335     18329     18332     18340     18341
     18329     18332     18340     18342     18329     18332     18340     18343
     18330     18329     18332     18333     18330     18329     18332     18334
     18330     18329     18332     18340     18331     18329     18332     18333
     18331     18329     18332     18334     18331     18329     18332     18340
     18332     18334     18335     18336     18332     18334     18335     18337
     18332     18340     18343     18344     18333     18332     18334     18335
     18333     18332     18340     18341     18333     18332     18340     18342
     18333     18332     18340     18343     18334     18332     18340     18341
     18334     18332     18340     18342     18334     18332     18340     18343
     18334     18335     18337     18338     18334     18335     18337     18339
     18334     18335     18337     18349     18335     18334     18332     18340
     18335     18337     18349     18350     18335     18337     18349     18351
     18335     18337     18349     18352     18336     18335     18337     18338
     18336     18335     18337     18339     18336     18335     18337     18349
     18337     18349     18352     18353     18337     18349     18352     18354
     18337     18349     18352     18355     18338     18337     18349     18350
     18338     18337     18349     18351     18338     18337     18349     18352
     18339     18337     18349     18350     18339     18337     18349     18351
     18339     18337     18349     18352     18340     18343     18344     18345
     18340     18343     18344     18346     18341     18340     18343     18344
     18342     18340     18343     18344     18343     18344     18346     18347
     18343     18344     18346     18348     18343     18344     18346     18393
     18344     18346     18393     18394     18344     18346     18393     18395
     18344     18346     18393     18396     18345     18344     18346     18347
     18345     18344     18346     18348     18345     18344     18346     18393
     18346     18393     18396     18397     18346     18393     18396     18398
     18346     18393     18396     18399     18347     18346     18393     18394
     18347     18346     18393     18395     18347     18346     18393     18396
     18348     18346     18393     18394     18348     18346     18393     18395
     18348     18346     18393     18396     18349     18352     18355     18356
     18349     18352     18355     18357     18349     18352     18355     18358
     18350     18349     18352     18353     18350     18349     18352     18354
     18350     18349     18352     18355     18351     18349     18352     18353
     18351     18349     18352     18354     18351     18349     18352     18355
     18352     18355     18358     18359     18352     18355     18358     18360
     18352     18355     18358     18361     18353     18352     18355     18356
     18353     18352     18355     18357     18353     18352     18355     18358
     18354     18352     18355     18356     18354     18352     18355     18357
     18354     18352     18355     18358     18355     18358     18361     18362
     18355     18358     18361     18363     18355     18358     18361     18364
     18356     18355     18358     18359     18356     18355     18358     18360
     18356     18355     18358     18361     18357     18355     18358     18359
     18357     18355     18358     18360     18357     18355     18358     18361
     18358     18361     18364     18365     18358     18361     18364     18366
     18358     18361     18364     18367     18359     18358     18361     18362
     18359     18358     18361     18363     18359     18358     18361     18364
     18360     18358     18361     18362     18360     18358     18361     18363
     18360     18358     18361     18364     18361     18364     18367     18368
     18361     18364     18367     18369     18361     18364     18367     18372
     18362     18361     18364     18365     18362     18361     18364     18366
     18362     18361     18364     18367     18363     18361     18364     18365
     18363     18361     18364     18366     18363     18361     18364     18367
     18364     18367     18369     18370     18364     18367     18369     18371
     18364     18367     18369     18372     18364     18367     18372     18369
     18364     18367     18372     18373     18364     18367     18372     18374
     18365     18364     18367     18368     18365     18364     18367     18369
     18365     18364     18367     18372     18366     18364     18367     18368
     18366     18364     18367     18369     18366     18364     18367     18372
     18367     18369     18372     18373     18367     18369     18372     18374
     18367     18372     18369     18370     18367     18372     18369     18371
     18367     18372     18374     18375     18367     18372     18374     18376
     18367     18372     18374     18377     18368     18367     18369     18370
     18368     18367     18369     18371     18368     18367     18369     18372
     18368     18367     18372     18369     18368     18367     18372     18373
     18368     18367     18372     18374     18369     18367     18372     18373
     18369     18367     18372     18374     18369     18372     18374     18375
     18369     18372     18374     18376     18369     18372     18374     18377
     18370     18369     18367     18372     18370     18369     18372     18373
     18370     18369     18372     18374     18371     18369     18367     18372
     18371     18369     18372     18373     18371     18369     18372     18374
     18372     18374     18377     18378     18372     18374     18377     18379
     18372     18374     18377     18380     18373     18372     18374     18375
     18373     18372     18374     18376     18373     18372     18374     18377
     18374     18377     18380     18381     18374     18377     18380     18382
     18374     18377     18380     18383     18375     18374     18377     18378
     18375     18374     18377     18379     18375     18374     18377     18380
     18376     18374     18377     18378     18376     18374     18377     18379
     18376     18374     18377     18380     18377     18380     18383     18384
     18377     18380     18383     18385     18377     18380     18383     18386
     18378     18377     18380     18381     18378     18377     18380     18382
     18378     18377     18380     18383     18379     18377     18380     18381
     18379     18377     18380     18382     18379     18377     18380     18383
     18380     18383     18386     18387     18380     18383     18386     18388
     18380     18383     18386     18389     18381     18380     18383     18384
     18381     18380     18383     18385     18381     18380     18383     18386
     18382     18380     18383     18384     18382     18380     18383     18385
     18382     18380     18383     18386     18383     18386     18389     18390
     18383     18386     18389     18391     18383     18386     18389     18392
     18384     18383     18386     18387     18384     18383     18386     18388
     18384     18383     18386     18389     18385     18383     18386     18387
     18385     18383     18386     18388     18385     18383     18386     18389
     18387     18386     18389     18390     18387     18386     18389     18391
     18387     18386     18389     18392     18388     18386     18389     18390
     18388     18386     18389     18391     18388     18386     18389     18392
     18393     18396     18399     18400     18393     18396     18399     18401
     18393     18396     18399     18402     18394     18393     18396     18397
     18394     18393     18396     18398     18394     18393     18396     18399
     18395     18393     18396     18397     18395     18393     18396     18398
     18395     18393     18396     18399     18396     18399     18402     18403
     18396     18399     18402     18404     18396     18399     18402     18405
     18397     18396     18399     18400     18397     18396     18399     18401
     18397     18396     18399     18402     18398     18396     18399     18400
     18398     18396     18399     18401     18398     18396     18399     18402
     18399     18402     18405     18406     18399     18402     18405     18407
     18399     18402     18405     18408     18400     18399     18402     18403
     18400     18399     18402     18404     18400     18399     18402     18405
     18401     18399     18402     18403     18401     18399     18402     18404
     18401     18399     18402     18405     18402     18405     18408     18409
     18402     18405     18408     18410     18402     18405     18408     18411
     18403     18402     18405     18406     18403     18402     18405     18407
     18403     18402     18405     18408     18404     18402     18405     18406
     18404     18402     18405     18407     18404     18402     18405     18408
     18405     18408     18411     18412     18405     18408     18411     18413
     18405     18408     18411     18414     18406     18405     18408     18409
     18406     18405     18408     18410     18406     18405     18408     18411
     18407     18405     18408     18409     18407     18405     18408     18410
     18407     18405     18408     18411     18408     18411     18414     18415
     18408     18411     18414     18416     18408     18411     18414     18417
     18409     18408     18411     18412     18409     18408     18411     18413
     18409     18408     18411     18414     18410     18408     18411     18412
     18410     18408     18411     18413     18410     18408     18411     18414
     18411     18414     18417     18418     18411     18414     18417     18419
     18411     18414     18417     18420     18412     18411     18414     18415
     18412     18411     18414     18416     18412     18411     18414     18417
     18413     18411     18414     18415     18413     18411     18414     18416
     18413     18411     18414     18417     18414     18417     18420     18421
     18414     18417     18420     18422     18414     18417     18420     18423
     18415     18414     18417     18418     18415     18414     18417     18419
     18415     18414     18417     18420     18416     18414     18417     18418
     18416     18414     18417     18419     18416     18414     18417     18420
     18417     18420     18423     18424     18417     18420     18423     18425
     18417     18420     18423     18426     18418     18417     18420     18421
     18418     18417     18420     18422     18418     18417     18420     18423
     18419     18417     18420     18421     18419     18417     18420     18422
     18419     18417     18420     18423     18420     18423     18426     18427
     18420     18423     18426     18428     18420     18423     18426     18429
     18421     18420     18423     18424     18421     18420     18423     18425
     18421     18420     18423     18426     18422     18420     18423     18424
     18422     18420     18423     18425     18422     18420     18423     18426
     18423     18426     18429     18430     18423     18426     18429     18431
     18423     18426     18429     18432     18424     18423     18426     18427
     18424     18423     18426     18428     18424     18423     18426     18429
     18425     18423     18426     18427     18425     18423     18426     18428
     18425     18423     18426     18429     18426     18429     18432     18433
     18426     18429     18432     18434     18426     18429     18432     18435
     18427     18426     18429     18430     18427     18426     18429     18431
     18427     18426     18429     18432     18428     18426     18429     18430
     18428     18426     18429     18431     18428     18426     18429     18432
     18430     18429     18432     18433     18430     18429     18432     18434
     18430     18429     18432     18435     18431     18429     18432     18433
     18431     18429     18432     18434     18431     18429     18432     18435
     18436     18441     18443     18444     18436     18441     18445     18446
     18436     18441     18445     18447     18436     18441     18445     18452
     18437     18436     18439     18440     18437     18436     18441     18442
     18437     18436     18441     18443     18437     18436     18441     18445
     18438     18436     18439     18440     18438     18436     18441     18442
     18438     18436     18441     18443     18438     18436     18441     18445
     18439     18436     18441     18442     18439     18436     18441     18443
     18439     18436     18441     18445     18440     18439     18436     18441
     18441     18445     18452     18448     18442     18441     18443     18444
     18442     18441     18445     18446     18442     18441     18445     18447
     18442     18441     18445     18452     18443     18441     18445     18446
     18443     18441     18445     18447     18443     18441     18445     18452
     18444     18443     18441     18445     18445     18452     18448     18449
     18445     18452     18448     18450     18445     18452     18448     18451
     18446     18445     18452     18448     18447     18445     18452     18448
     18448     18451     18453     18454     18448     18451     18453     18455
     18448     18451     18453     18456     18449     18448     18451     18453
     18450     18448     18451     18453     18451     18453     18456     18457
     18451     18453     18456     18458     18451     18453     18456     18464
     18452     18448     18451     18453     18453     18456     18458     18459
     18453     18456     18464     18465     18453     18456     18464     18466
     18453     18456     18464     18467     18454     18453     18456     18457
     18454     18453     18456     18458     18454     18453     18456     18464
     18455     18453     18456     18457     18455     18453     18456     18458
     18455     18453     18456     18464     18456     18458     18459     18460
     18456     18458     18459     18461     18456     18464     18467     18468
     18457     18456     18458     18459     18457     18456     18464     18465
     18457     18456     18464     18466     18457     18456     18464     18467
     18458     18456     18464     18465     18458     18456     18464     18466
     18458     18456     18464     18467     18458     18459     18461     18462
     18458     18459     18461     18463     18458     18459     18461     18473
     18459     18458     18456     18464     18459     18461     18473     18474
     18459     18461     18473     18475     18459     18461     18473     18476
     18460     18459     18461     18462     18460     18459     18461     18463
     18460     18459     18461     18473     18461     18473     18476     18477
     18461     18473     18476     18478     18461     18473     18476     18479
     18462     18461     18473     18474     18462     18461     18473     18475
     18462     18461     18473     18476     18463     18461     18473     18474
     18463     18461     18473     18475     18463     18461     18473     18476
     18464     18467     18468     18469     18464     18467     18468     18470
     18465     18464     18467     18468     18466     18464     18467     18468
     18467     18468     18470     18471     18467     18468     18470     18472
     18467     18468     18470     18514     18468     18470     18514     18515
     18468     18470     18514     18516     18468     18470     18514     18517
     18469     18468     18470     18471     18469     18468     18470     18472
     18469     18468     18470     18514     18470     18514     18517     18518
     18470     18514     18517     18519     18470     18514     18517     18520
     18471     18470     18514     18515     18471     18470     18514     18516
     18471     18470     18514     18517     18472     18470     18514     18515
     18472     18470     18514     18516     18472     18470     18514     18517
     18473     18476     18479     18480     18473     18476     18479     18481
     18473     18476     18479     18482     18474     18473     18476     18477
     18474     18473     18476     18478     18474     18473     18476     18479
     18475     18473     18476     18477     18475     18473     18476     18478
     18475     18473     18476     18479     18476     18479     18482     18483
     18476     18479     18482     18484     18476     18479     18482     18485
     18477     18476     18479     18480     18477     18476     18479     18481
     18477     18476     18479     18482     18478     18476     18479     18480
     18478     18476     18479     18481     18478     18476     18479     18482
     18479     18482     18485     18486     18479     18482     18485     18487
     18479     18482     18485     18488     18480     18479     18482     18483
     18480     18479     18482     18484     18480     18479     18482     18485
     18481     18479     18482     18483     18481     18479     18482     18484
     18481     18479     18482     18485     18482     18485     18488     18489
     18482     18485     18488     18490     18482     18485     18488     18491
     18483     18482     18485     18486     18483     18482     18485     18487
     18483     18482     18485     18488     18484     18482     18485     18486
     18484     18482     18485     18487     18484     18482     18485     18488
     18485     18488     18491     18492     18485     18488     18491     18493
     18486     18485     18488     18489     18486     18485     18488     18490
     18486     18485     18488     18491     18487     18485     18488     18489
     18487     18485     18488     18490     18487     18485     18488     18491
     18488     18491     18493     18494     18488     18491     18493     18495
     18489     18488     18491     18492     18489     18488     18491     18493
     18490     18488     18491     18492     18490     18488     18491     18493
     18491     18493     18495     18496     18491     18493     18495     18497
     18491     18493     18495     18498     18492     18491     18493     18494
     18492     18491     18493     18495     18493     18495     18498     18499
     18493     18495     18498     18500     18493     18495     18498     18501
     18494     18493     18495     18496     18494     18493     18495     18497
     18494     18493     18495     18498     18495     18498     18501     18502
     18495     18498     18501     18503     18495     18498     18501     18504
     18496     18495     18498     18499     18496     18495     18498     18500
     18496     18495     18498     18501     18497     18495     18498     18499
     18497     18495     18498     18500     18497     18495     18498     18501
     18498     18501     18504     18505     18498     18501     18504     18506
     18498     18501     18504     18507     18499     18498     18501     18502
     18499     18498     18501     18503     18499     18498     18501     18504
     18500     18498     18501     18502     18500     18498     18501     18503
     18500     18498     18501     18504     18501     18504     18507     18508
     18501     18504     18507     18509     18501     18504     18507     18510
     18502     18501     18504     18505     18502     18501     18504     18506
     18502     18501     18504     18507     18503     18501     18504     18505
     18503     18501     18504     18506     18503     18501     18504     18507
     18504     18507     18510     18511     18504     18507     18510     18512
     18504     18507     18510     18513     18505     18504     18507     18508
     18505     18504     18507     18509     18505     18504     18507     18510
     18506     18504     18507     18508     18506     18504     18507     18509
     18506     18504     18507     18510     18508     18507     18510     18511
     18508     18507     18510     18512     18508     18507     18510     18513
     18509     18507     18510     18511     18509     18507     18510     18512
     18509     18507     18510     18513     18514     18517     18520     18521
     18514     18517     18520     18522     18514     18517     18520     18523
     18515     18514     18517     18518     18515     18514     18517     18519
     18515     18514     18517     18520     18516     18514     18517     18518
     18516     18514     18517     18519     18516     18514     18517     18520
     18517     18520     18523     18524     18517     18520     18523     18525
     18517     18520     18523     18526     18518     18517     18520     18521
     18518     18517     18520     18522     18518     18517     18520     18523
     18519     18517     18520     18521     18519     18517     18520     18522
     18519     18517     18520     18523     18520     18523     18526     18527
     18520     18523     18526     18528     18520     18523     18526     18529
     18521     18520     18523     18524     18521     18520     18523     18525
     18521     18520     18523     18526     18522     18520     18523     18524
     18522     18520     18523     18525     18522     18520     18523     18526
     18523     18526     18529     18530     18523     18526     18529     18531
     18523     18526     18529     18532     18524     18523     18526     18527
     18524     18523     18526     18528     18524     18523     18526     18529
     18525     18523     18526     18527     18525     18523     18526     18528
     18525     18523     18526     18529     18526     18529     18532     18533
     18526     18529     18532     18534     18526     18529     18532     18535
     18527     18526     18529     18530     18527     18526     18529     18531
     18527     18526     18529     18532     18528     18526     18529     18530
     18528     18526     18529     18531     18528     18526     18529     18532
     18529     18532     18535     18536     18529     18532     18535     18537
     18529     18532     18535     18538     18530     18529     18532     18533
     18530     18529     18532     18534     18530     18529     18532     18535
     18531     18529     18532     18533     18531     18529     18532     18534
     18531     18529     18532     18535     18532     18535     18538     18539
     18532     18535     18538     18540     18532     18535     18538     18541
     18533     18532     18535     18536     18533     18532     18535     18537
     18533     18532     18535     18538     18534     18532     18535     18536
     18534     18532     18535     18537     18534     18532     18535     18538
     18535     18538     18541     18542     18535     18538     18541     18543
     18535     18538     18541     18544     18536     18535     18538     18539
     18536     18535     18538     18540     18536     18535     18538     18541
     18537     18535     18538     18539     18537     18535     18538     18540
     18537     18535     18538     18541     18538     18541     18544     18545
     18538     18541     18544     18546     18538     18541     18544     18547
     18539     18538     18541     18542     18539     18538     18541     18543
     18539     18538     18541     18544     18540     18538     18541     18542
     18540     18538     18541     18543     18540     18538     18541     18544
     18541     18544     18547     18548     18541     18544     18547     18549
     18541     18544     18547     18550     18542     18541     18544     18545
     18542     18541     18544     18546     18542     18541     18544     18547
     18543     18541     18544     18545     18543     18541     18544     18546
     18543     18541     18544     18547     18544     18547     18550     18551
     18544     18547     18550     18552     18544     18547     18550     18553
     18545     18544     18547     18548     18545     18544     18547     18549
     18545     18544     18547     18550     18546     18544     18547     18548
     18546     18544     18547     18549     18546     18544     18547     18550
     18547     18550     18553     18554     18547     18550     18553     18555
     18547     18550     18553     18556     18548     18547     18550     18551
     18548     18547     18550     18552     18548     18547     18550     18553
     18549     18547     18550     18551     18549     18547     18550     18552
     18549     18547     18550     18553     18551     18550     18553     18554
     18551     18550     18553     18555     18551     18550     18553     18556
     18552     18550     18553     18554     18552     18550     18553     18555
     18552     18550     18553     18556     18557     18561     18564     18565
     18557     18561     18564     18566     18557     18561     18564     18571
     18558     18557     18561     18562     18558     18557     18561     18563
     18558     18557     18561     18564     18559     18557     18561     18562
     18559     18557     18561     18563     18559     18557     18561     18564
     18560     18557     18561     18562     18560     18557     18561     18563
     18560     18557     18561     18564     18561     18564     18571     18567
     18562     18561     18564     18565     18562     18561     18564     18566
     18562     18561     18564     18571     18563     18561     18564     18565
     18563     18561     18564     18566     18563     18561     18564     18571
     18564     18571     18567     18568     18564     18571     18567     18569
     18564     18571     18567     18570     18565     18564     18571     18567
     18566     18564     18571     18567     18567     18570     18572     18573
     18567     18570     18572     18574     18567     18570     18572     18575
     18568     18567     18570     18572     18569     18567     18570     18572
     18570     18572     18575     18576     18570     18572     18575     18577
     18570     18572     18575     18583     18571     18567     18570     18572
     18572     18575     18577     18578     18572     18575     18583     18584
     18572     18575     18583     18585     18572     18575     18583     18586
     18573     18572     18575     18576     18573     18572     18575     18577
     18573     18572     18575     18583     18574     18572     18575     18576
     18574     18572     18575     18577     18574     18572     18575     18583
     18575     18577     18578     18579     18575     18577     18578     18580
     18575     18583     18586     18587     18576     18575     18577     18578
     18576     18575     18583     18584     18576     18575     18583     18585
     18576     18575     18583     18586     18577     18575     18583     18584
     18577     18575     18583     18585     18577     18575     18583     18586
     18577     18578     18580     18581     18577     18578     18580     18582
     18577     18578     18580     18592     18578     18577     18575     18583
     18578     18580     18592     18593     18578     18580     18592     18594
     18578     18580     18592     18595     18579     18578     18580     18581
     18579     18578     18580     18582     18579     18578     18580     18592
     18580     18592     18595     18596     18580     18592     18595     18597
     18580     18592     18595     18598     18581     18580     18592     18593
     18581     18580     18592     18594     18581     18580     18592     18595
     18582     18580     18592     18593     18582     18580     18592     18594
     18582     18580     18592     18595     18583     18586     18587     18588
     18583     18586     18587     18589     18584     18583     18586     18587
     18585     18583     18586     18587     18586     18587     18589     18590
     18586     18587     18589     18591     18586     18587     18589     18639
     18587     18589     18639     18640     18587     18589     18639     18641
     18587     18589     18639     18642     18588     18587     18589     18590
     18588     18587     18589     18591     18588     18587     18589     18639
     18589     18639     18642     18643     18589     18639     18642     18644
     18589     18639     18642     18645     18590     18589     18639     18640
     18590     18589     18639     18641     18590     18589     18639     18642
     18591     18589     18639     18640     18591     18589     18639     18641
     18591     18589     18639     18642     18592     18595     18598     18599
     18592     18595     18598     18600     18592     18595     18598     18601
     18593     18592     18595     18596     18593     18592     18595     18597
     18593     18592     18595     18598     18594     18592     18595     18596
     18594     18592     18595     18597     18594     18592     18595     18598
     18595     18598     18601     18602     18595     18598     18601     18603
     18595     18598     18601     18604     18596     18595     18598     18599
     18596     18595     18598     18600     18596     18595     18598     18601
     18597     18595     18598     18599     18597     18595     18598     18600
     18597     18595     18598     18601     18598     18601     18604     18605
     18598     18601     18604     18606     18598     18601     18604     18607
     18599     18598     18601     18602     18599     18598     18601     18603
     18599     18598     18601     18604     18600     18598     18601     18602
     18600     18598     18601     18603     18600     18598     18601     18604
     18601     18604     18607     18608     18601     18604     18607     18609
     18601     18604     18607     18610     18602     18601     18604     18605
     18602     18601     18604     18606     18602     18601     18604     18607
     18603     18601     18604     18605     18603     18601     18604     18606
     18603     18601     18604     18607     18604     18607     18610     18611
     18604     18607     18610     18612     18605     18604     18607     18608
     18605     18604     18607     18609     18605     18604     18607     18610
     18606     18604     18607     18608     18606     18604     18607     18609
     18606     18604     18607     18610     18607     18610     18612     18613
     18607     18610     18612     18614     18608     18607     18610     18611
     18608     18607     18610     18612     18609     18607     18610     18611
     18609     18607     18610     18612     18610     18612     18614     18615
     18610     18612     18614     18616     18610     18612     18614     18617
     18611     18610     18612     18613     18611     18610     18612     18614
     18612     18614     18617     18618     18612     18614     18617     18619
     18612     18614     18617     18620     18613     18612     18614     18615
     18613     18612     18614     18616     18613     18612     18614     18617
     18614     18617     18620     18621     18614     18617     18620     18622
     18614     18617     18620     18623     18615     18614     18617     18618
     18615     18614     18617     18619     18615     18614     18617     18620
     18616     18614     18617     18618     18616     18614     18617     18619
     18616     18614     18617     18620     18617     18620     18623     18624
     18617     18620     18623     18625     18617     18620     18623     18626
     18618     18617     18620     18621     18618     18617     18620     18622
     18618     18617     18620     18623     18619     18617     18620     18621
     18619     18617     18620     18622     18619     18617     18620     18623
     18620     18623     18626     18627     18620     18623     18626     18628
     18620     18623     18626     18629     18621     18620     18623     18624
     18621     18620     18623     18625     18621     18620     18623     18626
     18622     18620     18623     18624     18622     18620     18623     18625
     18622     18620     18623     18626     18623     18626     18629     18630
     18623     18626     18629     18631     18623     18626     18629     18632
     18624     18623     18626     18627     18624     18623     18626     18628
     18624     18623     18626     18629     18625     18623     18626     18627
     18625     18623     18626     18628     18625     18623     18626     18629
     18626     18629     18632     18633     18626     18629     18632     18634
     18626     18629     18632     18635     18627     18626     18629     18630
     18627     18626     18629     18631     18627     18626     18629     18632
     18628     18626     18629     18630     18628     18626     18629     18631
     18628     18626     18629     18632     18629     18632     18635     18636
     18629     18632     18635     18637     18629     18632     18635     18638
     18630     18629     18632     18633     18630     18629     18632     18634
     18630     18629     18632     18635     18631     18629     18632     18633
     18631     18629     18632     18634     18631     18629     18632     18635
     18633     18632     18635     18636     18633     18632     18635     18637
     18633     18632     18635     18638     18634     18632     18635     18636
     18634     18632     18635     18637     18634     18632     18635     18638
     18639     18642     18645     18646     18639     18642     18645     18647
     18639     18642     18645     18648     18640     18639     18642     18643
     18640     18639     18642     18644     18640     18639     18642     18645
     18641     18639     18642     18643     18641     18639     18642     18644
     18641     18639     18642     18645     18642     18645     18648     18649
     18642     18645     18648     18650     18642     18645     18648     18651
     18643     18642     18645     18646     18643     18642     18645     18647
     18643     18642     18645     18648     18644     18642     18645     18646
     18644     18642     18645     18647     18644     18642     18645     18648
     18645     18648     18651     18652     18645     18648     18651     18653
     18645     18648     18651     18654     18646     18645     18648     18649
     18646     18645     18648     18650     18646     18645     18648     18651
     18647     18645     18648     18649     18647     18645     18648     18650
     18647     18645     18648     18651     18648     18651     18654     18655
     18648     18651     18654     18656     18648     18651     18654     18657
     18649     18648     18651     18652     18649     18648     18651     18653
     18649     18648     18651     18654     18650     18648     18651     18652
     18650     18648     18651     18653     18650     18648     18651     18654
     18651     18654     18657     18658     18651     18654     18657     18659
     18651     18654     18657     18660     18652     18651     18654     18655
     18652     18651     18654     18656     18652     18651     18654     18657
     18653     18651     18654     18655     18653     18651     18654     18656
     18653     18651     18654     18657     18654     18657     18660     18661
     18654     18657     18660     18662     18654     18657     18660     18663
     18655     18654     18657     18658     18655     18654     18657     18659
     18655     18654     18657     18660     18656     18654     18657     18658
     18656     18654     18657     18659     18656     18654     18657     18660
     18657     18660     18663     18664     18657     18660     18663     18665
     18657     18660     18663     18666     18658     18657     18660     18661
     18658     18657     18660     18662     18658     18657     18660     18663
     18659     18657     18660     18661     18659     18657     18660     18662
     18659     18657     18660     18663     18660     18663     18666     18667
     18660     18663     18666     18668     18660     18663     18666     18669
     18661     18660     18663     18664     18661     18660     18663     18665
     18661     18660     18663     18666     18662     18660     18663     18664
     18662     18660     18663     18665     18662     18660     18663     18666
     18663     18666     18669     18670     18663     18666     18669     18671
     18663     18666     18669     18672     18664     18663     18666     18667
     18664     18663     18666     18668     18664     18663     18666     18669
     18665     18663     18666     18667     18665     18663     18666     18668
     18665     18663     18666     18669     18666     18669     18672     18673
     18666     18669     18672     18674     18666     18669     18672     18675
     18667     18666     18669     18670     18667     18666     18669     18671
     18667     18666     18669     18672     18668     18666     18669     18670
     18668     18666     18669     18671     18668     18666     18669     18672
     18669     18672     18675     18676     18669     18672     18675     18677
     18669     18672     18675     18678     18670     18669     18672     18673
     18670     18669     18672     18674     18670     18669     18672     18675
     18671     18669     18672     18673     18671     18669     18672     18674
     18671     18669     18672     18675     18672     18675     18678     18679
     18672     18675     18678     18680     18672     18675     18678     18681
     18673     18672     18675     18676     18673     18672     18675     18677
     18673     18672     18675     18678     18674     18672     18675     18676
     18674     18672     18675     18677     18674     18672     18675     18678
     18676     18675     18678     18679     18676     18675     18678     18680
     18676     18675     18678     18681     18677     18675     18678     18679
     18677     18675     18678     18680     18677     18675     18678     18681
     18682     18686     18689     18690     18682     18686     18689     18691
     18682     18686     18689     18696     18683     18682     18686     18687
     18683     18682     18686     18688     18683     18682     18686     18689
     18684     18682     18686     18687     18684     18682     18686     18688
     18684     18682     18686     18689     18685     18682     18686     18687
     18685     18682     18686     18688     18685     18682     18686     18689
     18686     18689     18696     18692     18687     18686     18689     18690
     18687     18686     18689     18691     18687     18686     18689     18696
     18688     18686     18689     18690     18688     18686     18689     18691
     18688     18686     18689     18696     18689     18696     18692     18693
     18689     18696     18692     18694     18689     18696     18692     18695
     18690     18689     18696     18692     18691     18689     18696     18692
     18692     18695     18697     18698     18692     18695     18697     18699
     18692     18695     18697     18700     18693     18692     18695     18697
     18694     18692     18695     18697     18695     18697     18700     18701
     18695     18697     18700     18702     18695     18697     18700     18708
     18696     18692     18695     18697     18697     18700     18702     18703
     18697     18700     18708     18709     18697     18700     18708     18710
     18697     18700     18708     18711     18698     18697     18700     18701
     18698     18697     18700     18702     18698     18697     18700     18708
     18699     18697     18700     18701     18699     18697     18700     18702
     18699     18697     18700     18708     18700     18702     18703     18704
     18700     18702     18703     18705     18700     18708     18711     18712
     18701     18700     18702     18703     18701     18700     18708     18709
     18701     18700     18708     18710     18701     18700     18708     18711
     18702     18700     18708     18709     18702     18700     18708     18710
     18702     18700     18708     18711     18702     18703     18705     18706
     18702     18703     18705     18707     18702     18703     18705     18717
     18703     18702     18700     18708     18703     18705     18717     18718
     18703     18705     18717     18719     18703     18705     18717     18720
     18704     18703     18705     18706     18704     18703     18705     18707
     18704     18703     18705     18717     18705     18717     18720     18721
     18705     18717     18720     18722     18705     18717     18720     18723
     18706     18705     18717     18718     18706     18705     18717     18719
     18706     18705     18717     18720     18707     18705     18717     18718
     18707     18705     18717     18719     18707     18705     18717     18720
     18708     18711     18712     18713     18708     18711     18712     18714
     18709     18708     18711     18712     18710     18708     18711     18712
     18711     18712     18714     18715     18711     18712     18714     18716
     18711     18712     18714     18761     18712     18714     18761     18762
     18712     18714     18761     18763     18712     18714     18761     18764
     18713     18712     18714     18715     18713     18712     18714     18716
     18713     18712     18714     18761     18714     18761     18764     18765
     18714     18761     18764     18766     18714     18761     18764     18767
     18715     18714     18761     18762     18715     18714     18761     18763
     18715     18714     18761     18764     18716     18714     18761     18762
     18716     18714     18761     18763     18716     18714     18761     18764
     18717     18720     18723     18724     18717     18720     18723     18725
     18717     18720     18723     18726     18718     18717     18720     18721
     18718     18717     18720     18722     18718     18717     18720     18723
     18719     18717     18720     18721     18719     18717     18720     18722
     18719     18717     18720     18723     18720     18723     18726     18727
     18720     18723     18726     18728     18720     18723     18726     18729
     18721     18720     18723     18724     18721     18720     18723     18725
     18721     18720     18723     18726     18722     18720     18723     18724
     18722     18720     18723     18725     18722     18720     18723     18726
     18723     18726     18729     18730     18723     18726     18729     18731
     18723     18726     18729     18732     18724     18723     18726     18727
     18724     18723     18726     18728     18724     18723     18726     18729
     18725     18723     18726     18727     18725     18723     18726     18728
     18725     18723     18726     18729     18726     18729     18732     18733
     18726     18729     18732     18734     18726     18729     18732     18735
     18727     18726     18729     18730     18727     18726     18729     18731
     18727     18726     18729     18732     18728     18726     18729     18730
     18728     18726     18729     18731     18728     18726     18729     18732
     18729     18732     18735     18736     18729     18732     18735     18737
     18729     18732     18735     18740     18730     18729     18732     18733
     18730     18729     18732     18734     18730     18729     18732     18735
     18731     18729     18732     18733     18731     18729     18732     18734
     18731     18729     18732     18735     18732     18735     18737     18738
     18732     18735     18737     18739     18732     18735     18737     18740
     18732     18735     18740     18737     18732     18735     18740     18741
     18732     18735     18740     18742     18733     18732     18735     18736
     18733     18732     18735     18737     18733     18732     18735     18740
     18734     18732     18735     18736     18734     18732     18735     18737
     18734     18732     18735     18740     18735     18737     18740     18741
     18735     18737     18740     18742     18735     18740     18737     18738
     18735     18740     18737     18739     18735     18740     18742     18743
     18735     18740     18742     18744     18735     18740     18742     18745
     18736     18735     18737     18738     18736     18735     18737     18739
     18736     18735     18737     18740     18736     18735     18740     18737
     18736     18735     18740     18741     18736     18735     18740     18742
     18737     18735     18740     18741     18737     18735     18740     18742
     18737     18740     18742     18743     18737     18740     18742     18744
     18737     18740     18742     18745     18738     18737     18735     18740
     18738     18737     18740     18741     18738     18737     18740     18742
     18739     18737     18735     18740     18739     18737     18740     18741
     18739     18737     18740     18742     18740     18742     18745     18746
     18740     18742     18745     18747     18740     18742     18745     18748
     18741     18740     18742     18743     18741     18740     18742     18744
     18741     18740     18742     18745     18742     18745     18748     18749
     18742     18745     18748     18750     18742     18745     18748     18751
     18743     18742     18745     18746     18743     18742     18745     18747
     18743     18742     18745     18748     18744     18742     18745     18746
     18744     18742     18745     18747     18744     18742     18745     18748
     18745     18748     18751     18752     18745     18748     18751     18753
     18745     18748     18751     18754     18746     18745     18748     18749
     18746     18745     18748     18750     18746     18745     18748     18751
     18747     18745     18748     18749     18747     18745     18748     18750
     18747     18745     18748     18751     18748     18751     18754     18755
     18748     18751     18754     18756     18748     18751     18754     18757
     18749     18748     18751     18752     18749     18748     18751     18753
     18749     18748     18751     18754     18750     18748     18751     18752
     18750     18748     18751     18753     18750     18748     18751     18754
     18751     18754     18757     18758     18751     18754     18757     18759
     18751     18754     18757     18760     18752     18751     18754     18755
     18752     18751     18754     18756     18752     18751     18754     18757
     18753     18751     18754     18755     18753     18751     18754     18756
     18753     18751     18754     18757     18755     18754     18757     18758
     18755     18754     18757     18759     18755     18754     18757     18760
     18756     18754     18757     18758     18756     18754     18757     18759
     18756     18754     18757     18760     18761     18764     18767     18768
     18761     18764     18767     18769     18761     18764     18767     18770
     18762     18761     18764     18765     18762     18761     18764     18766
     18762     18761     18764     18767     18763     18761     18764     18765
     18763     18761     18764     18766     18763     18761     18764     18767
     18764     18767     18770     18771     18764     18767     18770     18772
     18764     18767     18770     18773     18765     18764     18767     18768
     18765     18764     18767     18769     18765     18764     18767     18770
     18766     18764     18767     18768     18766     18764     18767     18769
     18766     18764     18767     18770     18767     18770     18773     18774
     18767     18770     18773     18775     18767     18770     18773     18776
     18768     18767     18770     18771     18768     18767     18770     18772
     18768     18767     18770     18773     18769     18767     18770     18771
     18769     18767     18770     18772     18769     18767     18770     18773
     18770     18773     18776     18777     18770     18773     18776     18778
     18770     18773     18776     18779     18771     18770     18773     18774
     18771     18770     18773     18775     18771     18770     18773     18776
     18772     18770     18773     18774     18772     18770     18773     18775
     18772     18770     18773     18776     18773     18776     18779     18780
     18773     18776     18779     18781     18773     18776     18779     18782
     18774     18773     18776     18777     18774     18773     18776     18778
     18774     18773     18776     18779     18775     18773     18776     18777
     18775     18773     18776     18778     18775     18773     18776     18779
     18776     18779     18782     18783     18776     18779     18782     18784
     18776     18779     18782     18785     18777     18776     18779     18780
     18777     18776     18779     18781     18777     18776     18779     18782
     18778     18776     18779     18780     18778     18776     18779     18781
     18778     18776     18779     18782     18779     18782     18785     18786
     18779     18782     18785     18787     18779     18782     18785     18788
     18780     18779     18782     18783     18780     18779     18782     18784
     18780     18779     18782     18785     18781     18779     18782     18783
     18781     18779     18782     18784     18781     18779     18782     18785
     18782     18785     18788     18789     18782     18785     18788     18790
     18782     18785     18788     18791     18783     18782     18785     18786
     18783     18782     18785     18787     18783     18782     18785     18788
     18784     18782     18785     18786     18784     18782     18785     18787
     18784     18782     18785     18788     18785     18788     18791     18792
     18785     18788     18791     18793     18785     18788     18791     18794
     18786     18785     18788     18789     18786     18785     18788     18790
     18786     18785     18788     18791     18787     18785     18788     18789
     18787     18785     18788     18790     18787     18785     18788     18791
     18788     18791     18794     18795     18788     18791     18794     18796
     18788     18791     18794     18797     18789     18788     18791     18792
     18789     18788     18791     18793     18789     18788     18791     18794
     18790     18788     18791     18792     18790     18788     18791     18793
     18790     18788     18791     18794     18791     18794     18797     18798
     18791     18794     18797     18799     18791     18794     18797     18800
     18792     18791     18794     18795     18792     18791     18794     18796
     18792     18791     18794     18797     18793     18791     18794     18795
     18793     18791     18794     18796     18793     18791     18794     18797
     18794     18797     18800     18801     18794     18797     18800     18802
     18794     18797     18800     18803     18795     18794     18797     18798
     18795     18794     18797     18799     18795     18794     18797     18800
     18796     18794     18797     18798     18796     18794     18797     18799
     18796     18794     18797     18800     18798     18797     18800     18801
     18798     18797     18800     18802     18798     18797     18800     18803
     18799     18797     18800     18801     18799     18797     18800     18802
     18799     18797     18800     18803     18804     18808     18811     18812
     18804     18808     18811     18813     18804     18808     18811     18818
     18805     18804     18808     18809     18805     18804     18808     18810
     18805     18804     18808     18811     18806     18804     18808     18809
     18806     18804     18808     18810     18806     18804     18808     18811
     18807     18804     18808     18809     18807     18804     18808     18810
     18807     18804     18808     18811     18808     18811     18818     18814
     18809     18808     18811     18812     18809     18808     18811     18813
     18809     18808     18811     18818     18810     18808     18811     18812
     18810     18808     18811     18813     18810     18808     18811     18818
     18811     18818     18814     18815     18811     18818     18814     18816
     18811     18818     18814     18817     18812     18811     18818     18814
     18813     18811     18818     18814     18814     18817     18819     18820
     18814     18817     18819     18821     18814     18817     18819     18822
     18815     18814     18817     18819     18816     18814     18817     18819
     18817     18819     18822     18823     18817     18819     18822     18824
     18817     18819     18822     18830     18818     18814     18817     18819
     18819     18822     18824     18825     18819     18822     18830     18831
     18819     18822     18830     18832     18819     18822     18830     18833
     18820     18819     18822     18823     18820     18819     18822     18824
     18820     18819     18822     18830     18821     18819     18822     18823
     18821     18819     18822     18824     18821     18819     18822     18830
     18822     18824     18825     18826     18822     18824     18825     18827
     18822     18830     18833     18834     18823     18822     18824     18825
     18823     18822     18830     18831     18823     18822     18830     18832
     18823     18822     18830     18833     18824     18822     18830     18831
     18824     18822     18830     18832     18824     18822     18830     18833
     18824     18825     18827     18828     18824     18825     18827     18829
     18824     18825     18827     18839     18825     18824     18822     18830
     18825     18827     18839     18840     18825     18827     18839     18841
     18825     18827     18839     18842     18826     18825     18827     18828
     18826     18825     18827     18829     18826     18825     18827     18839
     18827     18839     18842     18843     18827     18839     18842     18844
     18827     18839     18842     18845     18828     18827     18839     18840
     18828     18827     18839     18841     18828     18827     18839     18842
     18829     18827     18839     18840     18829     18827     18839     18841
     18829     18827     18839     18842     18830     18833     18834     18835
     18830     18833     18834     18836     18831     18830     18833     18834
     18832     18830     18833     18834     18833     18834     18836     18837
     18833     18834     18836     18838     18833     18834     18836     18883
     18834     18836     18883     18884     18834     18836     18883     18885
     18834     18836     18883     18886     18835     18834     18836     18837
     18835     18834     18836     18838     18835     18834     18836     18883
     18836     18883     18886     18887     18836     18883     18886     18888
     18836     18883     18886     18889     18837     18836     18883     18884
     18837     18836     18883     18885     18837     18836     18883     18886
     18838     18836     18883     18884     18838     18836     18883     18885
     18838     18836     18883     18886     18839     18842     18845     18846
     18839     18842     18845     18847     18839     18842     18845     18848
     18840     18839     18842     18843     18840     18839     18842     18844
     18840     18839     18842     18845     18841     18839     18842     18843
     18841     18839     18842     18844     18841     18839     18842     18845
     18842     18845     18848     18849     18842     18845     18848     18850
     18842     18845     18848     18851     18843     18842     18845     18846
     18843     18842     18845     18847     18843     18842     18845     18848
     18844     18842     18845     18846     18844     18842     18845     18847
     18844     18842     18845     18848     18845     18848     18851     18852
     18845     18848     18851     18853     18845     18848     18851     18854
     18846     18845     18848     18849     18846     18845     18848     18850
     18846     18845     18848     18851     18847     18845     18848     18849
     18847     18845     18848     18850     18847     18845     18848     18851
     18848     18851     18854     18855     18848     18851     18854     18856
     18848     18851     18854     18857     18849     18848     18851     18852
     18849     18848     18851     18853     18849     18848     18851     18854
     18850     18848     18851     18852     18850     18848     18851     18853
     18850     18848     18851     18854     18851     18854     18857     18858
     18851     18854     18857     18859     18851     18854     18857     18862
     18852     18851     18854     18855     18852     18851     18854     18856
     18852     18851     18854     18857     18853     18851     18854     18855
     18853     18851     18854     18856     18853     18851     18854     18857
     18854     18857     18859     18860     18854     18857     18859     18861
     18854     18857     18859     18862     18854     18857     18862     18859
     18854     18857     18862     18863     18854     18857     18862     18864
     18855     18854     18857     18858     18855     18854     18857     18859
     18855     18854     18857     18862     18856     18854     18857     18858
     18856     18854     18857     18859     18856     18854     18857     18862
     18857     18859     18862     18863     18857     18859     18862     18864
     18857     18862     18859     18860     18857     18862     18859     18861
     18857     18862     18864     18865     18857     18862     18864     18866
     18857     18862     18864     18867     18858     18857     18859     18860
     18858     18857     18859     18861     18858     18857     18859     18862
     18858     18857     18862     18859     18858     18857     18862     18863
     18858     18857     18862     18864     18859     18857     18862     18863
     18859     18857     18862     18864     18859     18862     18864     18865
     18859     18862     18864     18866     18859     18862     18864     18867
     18860     18859     18857     18862     18860     18859     18862     18863
     18860     18859     18862     18864     18861     18859     18857     18862
     18861     18859     18862     18863     18861     18859     18862     18864
     18862     18864     18867     18868     18862     18864     18867     18869
     18862     18864     18867     18870     18863     18862     18864     18865
     18863     18862     18864     18866     18863     18862     18864     18867
     18864     18867     18870     18871     18864     18867     18870     18872
     18864     18867     18870     18873     18865     18864     18867     18868
     18865     18864     18867     18869     18865     18864     18867     18870
     18866     18864     18867     18868     18866     18864     18867     18869
     18866     18864     18867     18870     18867     18870     18873     18874
     18867     18870     18873     18875     18867     18870     18873     18876
     18868     18867     18870     18871     18868     18867     18870     18872
     18868     18867     18870     18873     18869     18867     18870     18871
     18869     18867     18870     18872     18869     18867     18870     18873
     18870     18873     18876     18877     18870     18873     18876     18878
     18870     18873     18876     18879     18871     18870     18873     18874
     18871     18870     18873     18875     18871     18870     18873     18876
     18872     18870     18873     18874     18872     18870     18873     18875
     18872     18870     18873     18876     18873     18876     18879     18880
     18873     18876     18879     18881     18873     18876     18879     18882
     18874     18873     18876     18877     18874     18873     18876     18878
     18874     18873     18876     18879     18875     18873     18876     18877
     18875     18873     18876     18878     18875     18873     18876     18879
     18877     18876     18879     18880     18877     18876     18879     18881
     18877     18876     18879     18882     18878     18876     18879     18880
     18878     18876     18879     18881     18878     18876     18879     18882
     18883     18886     18889     18890     18883     18886     18889     18891
     18883     18886     18889     18892     18884     18883     18886     18887
     18884     18883     18886     18888     18884     18883     18886     18889
     18885     18883     18886     18887     18885     18883     18886     18888
     18885     18883     18886     18889     18886     18889     18892     18893
     18886     18889     18892     18894     18886     18889     18892     18895
     18887     18886     18889     18890     18887     18886     18889     18891
     18887     18886     18889     18892     18888     18886     18889     18890
     18888     18886     18889     18891     18888     18886     18889     18892
     18889     18892     18895     18896     18889     18892     18895     18897
     18889     18892     18895     18898     18890     18889     18892     18893
     18890     18889     18892     18894     18890     18889     18892     18895
     18891     18889     18892     18893     18891     18889     18892     18894
     18891     18889     18892     18895     18892     18895     18898     18899
     18892     18895     18898     18900     18892     18895     18898     18901
     18893     18892     18895     18896     18893     18892     18895     18897
     18893     18892     18895     18898     18894     18892     18895     18896
     18894     18892     18895     18897     18894     18892     18895     18898
     18895     18898     18901     18902     18895     18898     18901     18903
     18895     18898     18901     18904     18896     18895     18898     18899
     18896     18895     18898     18900     18896     18895     18898     18901
     18897     18895     18898     18899     18897     18895     18898     18900
     18897     18895     18898     18901     18898     18901     18904     18905
     18898     18901     18904     18906     18898     18901     18904     18907
     18899     18898     18901     18902     18899     18898     18901     18903
     18899     18898     18901     18904     18900     18898     18901     18902
     18900     18898     18901     18903     18900     18898     18901     18904
     18901     18904     18907     18908     18901     18904     18907     18909
     18901     18904     18907     18910     18902     18901     18904     18905
     18902     18901     18904     18906     18902     18901     18904     18907
     18903     18901     18904     18905     18903     18901     18904     18906
     18903     18901     18904     18907     18904     18907     18910     18911
     18904     18907     18910     18912     18904     18907     18910     18913
     18905     18904     18907     18908     18905     18904     18907     18909
     18905     18904     18907     18910     18906     18904     18907     18908
     18906     18904     18907     18909     18906     18904     18907     18910
     18907     18910     18913     18914     18907     18910     18913     18915
     18907     18910     18913     18916     18908     18907     18910     18911
     18908     18907     18910     18912     18908     18907     18910     18913
     18909     18907     18910     18911     18909     18907     18910     18912
     18909     18907     18910     18913     18910     18913     18916     18917
     18910     18913     18916     18918     18910     18913     18916     18919
     18911     18910     18913     18914     18911     18910     18913     18915
     18911     18910     18913     18916     18912     18910     18913     18914
     18912     18910     18913     18915     18912     18910     18913     18916
     18913     18916     18919     18920     18913     18916     18919     18921
     18913     18916     18919     18922     18914     18913     18916     18917
     18914     18913     18916     18918     18914     18913     18916     18919
     18915     18913     18916     18917     18915     18913     18916     18918
     18915     18913     18916     18919     18917     18916     18919     18920
     18917     18916     18919     18921     18917     18916     18919     18922
     18918     18916     18919     18920     18918     18916     18919     18921
     18918     18916     18919     18922     18923     18927     18930     18931
     18923     18927     18930     18932     18923     18927     18930     18937
     18924     18923     18927     18928     18924     18923     18927     18929
     18924     18923     18927     18930     18925     18923     18927     18928
     18925     18923     18927     18929     18925     18923     18927     18930
     18926     18923     18927     18928     18926     18923     18927     18929
     18926     18923     18927     18930     18927     18930     18937     18933
     18928     18927     18930     18931     18928     18927     18930     18932
     18928     18927     18930     18937     18929     18927     18930     18931
     18929     18927     18930     18932     18929     18927     18930     18937
     18930     18937     18933     18934     18930     18937     18933     18935
     18930     18937     18933     18936     18931     18930     18937     18933
     18932     18930     18937     18933     18933     18936     18938     18939
     18933     18936     18938     18940     18933     18936     18938     18941
     18934     18933     18936     18938     18935     18933     18936     18938
     18936     18938     18941     18942     18936     18938     18941     18943
     18936     18938     18941     18949     18937     18933     18936     18938
     18938     18941     18943     18944     18938     18941     18949     18950
     18938     18941     18949     18951     18938     18941     18949     18952
     18939     18938     18941     18942     18939     18938     18941     18943
     18939     18938     18941     18949     18940     18938     18941     18942
     18940     18938     18941     18943     18940     18938     18941     18949
     18941     18943     18944     18945     18941     18943     18944     18946
     18941     18949     18952     18953     18942     18941     18943     18944
     18942     18941     18949     18950     18942     18941     18949     18951
     18942     18941     18949     18952     18943     18941     18949     18950
     18943     18941     18949     18951     18943     18941     18949     18952
     18943     18944     18946     18947     18943     18944     18946     18948
     18943     18944     18946     18958     18944     18943     18941     18949
     18944     18946     18958     18959     18944     18946     18958     18960
     18944     18946     18958     18961     18945     18944     18946     18947
     18945     18944     18946     18948     18945     18944     18946     18958
     18946     18958     18961     18962     18946     18958     18961     18963
     18946     18958     18961     18964     18947     18946     18958     18959
     18947     18946     18958     18960     18947     18946     18958     18961
     18948     18946     18958     18959     18948     18946     18958     18960
     18948     18946     18958     18961     18949     18952     18953     18954
     18949     18952     18953     18955     18950     18949     18952     18953
     18951     18949     18952     18953     18952     18953     18955     18956
     18952     18953     18955     18957     18952     18953     18955     19002
     18953     18955     19002     19003     18953     18955     19002     19004
     18953     18955     19002     19005     18954     18953     18955     18956
     18954     18953     18955     18957     18954     18953     18955     19002
     18955     19002     19005     19006     18955     19002     19005     19007
     18955     19002     19005     19008     18956     18955     19002     19003
     18956     18955     19002     19004     18956     18955     19002     19005
     18957     18955     19002     19003     18957     18955     19002     19004
     18957     18955     19002     19005     18958     18961     18964     18965
     18958     18961     18964     18966     18958     18961     18964     18967
     18959     18958     18961     18962     18959     18958     18961     18963
     18959     18958     18961     18964     18960     18958     18961     18962
     18960     18958     18961     18963     18960     18958     18961     18964
     18961     18964     18967     18968     18961     18964     18967     18969
     18961     18964     18967     18970     18962     18961     18964     18965
     18962     18961     18964     18966     18962     18961     18964     18967
     18963     18961     18964     18965     18963     18961     18964     18966
     18963     18961     18964     18967     18964     18967     18970     18971
     18964     18967     18970     18972     18964     18967     18970     18973
     18965     18964     18967     18968     18965     18964     18967     18969
     18965     18964     18967     18970     18966     18964     18967     18968
     18966     18964     18967     18969     18966     18964     18967     18970
     18967     18970     18973     18974     18967     18970     18973     18975
     18967     18970     18973     18976     18968     18967     18970     18971
     18968     18967     18970     18972     18968     18967     18970     18973
     18969     18967     18970     18971     18969     18967     18970     18972
     18969     18967     18970     18973     18970     18973     18976     18977
     18970     18973     18976     18978     18970     18973     18976     18981
     18971     18970     18973     18974     18971     18970     18973     18975
     18971     18970     18973     18976     18972     18970     18973     18974
     18972     18970     18973     18975     18972     18970     18973     18976
     18973     18976     18978     18979     18973     18976     18978     18980
     18973     18976     18978     18981     18973     18976     18981     18978
     18973     18976     18981     18982     18973     18976     18981     18983
     18974     18973     18976     18977     18974     18973     18976     18978
     18974     18973     18976     18981     18975     18973     18976     18977
     18975     18973     18976     18978     18975     18973     18976     18981
     18976     18978     18981     18982     18976     18978     18981     18983
     18976     18981     18978     18979     18976     18981     18978     18980
     18976     18981     18983     18984     18976     18981     18983     18985
     18976     18981     18983     18986     18977     18976     18978     18979
     18977     18976     18978     18980     18977     18976     18978     18981
     18977     18976     18981     18978     18977     18976     18981     18982
     18977     18976     18981     18983     18978     18976     18981     18982
     18978     18976     18981     18983     18978     18981     18983     18984
     18978     18981     18983     18985     18978     18981     18983     18986
     18979     18978     18976     18981     18979     18978     18981     18982
     18979     18978     18981     18983     18980     18978     18976     18981
     18980     18978     18981     18982     18980     18978     18981     18983
     18981     18983     18986     18987     18981     18983     18986     18988
     18981     18983     18986     18989     18982     18981     18983     18984
     18982     18981     18983     18985     18982     18981     18983     18986
     18983     18986     18989     18990     18983     18986     18989     18991
     18983     18986     18989     18992     18984     18983     18986     18987
     18984     18983     18986     18988     18984     18983     18986     18989
     18985     18983     18986     18987     18985     18983     18986     18988
     18985     18983     18986     18989     18986     18989     18992     18993
     18986     18989     18992     18994     18986     18989     18992     18995
     18987     18986     18989     18990     18987     18986     18989     18991
     18987     18986     18989     18992     18988     18986     18989     18990
     18988     18986     18989     18991     18988     18986     18989     18992
     18989     18992     18995     18996     18989     18992     18995     18997
     18989     18992     18995     18998     18990     18989     18992     18993
     18990     18989     18992     18994     18990     18989     18992     18995
     18991     18989     18992     18993     18991     18989     18992     18994
     18991     18989     18992     18995     18992     18995     18998     18999
     18992     18995     18998     19000     18992     18995     18998     19001
     18993     18992     18995     18996     18993     18992     18995     18997
     18993     18992     18995     18998     18994     18992     18995     18996
     18994     18992     18995     18997     18994     18992     18995     18998
     18996     18995     18998     18999     18996     18995     18998     19000
     18996     18995     18998     19001     18997     18995     18998     18999
     18997     18995     18998     19000     18997     18995     18998     19001
     19002     19005     19008     19009     19002     19005     19008     19010
     19002     19005     19008     19011     19003     19002     19005     19006
     19003     19002     19005     19007     19003     19002     19005     19008
     19004     19002     19005     19006     19004     19002     19005     19007
     19004     19002     19005     19008     19005     19008     19011     19012
     19005     19008     19011     19013     19005     19008     19011     19014
     19006     19005     19008     19009     19006     19005     19008     19010
     19006     19005     19008     19011     19007     19005     19008     19009
     19007     19005     19008     19010     19007     19005     19008     19011
     19008     19011     19014     19015     19008     19011     19014     19016
     19008     19011     19014     19017     19009     19008     19011     19012
     19009     19008     19011     19013     19009     19008     19011     19014
     19010     19008     19011     19012     19010     19008     19011     19013
     19010     19008     19011     19014     19011     19014     19017     19018
     19011     19014     19017     19019     19011     19014     19017     19020
     19012     19011     19014     19015     19012     19011     19014     19016
     19012     19011     19014     19017     19013     19011     19014     19015
     19013     19011     19014     19016     19013     19011     19014     19017
     19014     19017     19020     19021     19014     19017     19020     19022
     19014     19017     19020     19023     19015     19014     19017     19018
     19015     19014     19017     19019     19015     19014     19017     19020
     19016     19014     19017     19018     19016     19014     19017     19019
     19016     19014     19017     19020     19017     19020     19023     19024
     19017     19020     19023     19025     19017     19020     19023     19026
     19018     19017     19020     19021     19018     19017     19020     19022
     19018     19017     19020     19023     19019     19017     19020     19021
     19019     19017     19020     19022     19019     19017     19020     19023
     19020     19023     19026     19027     19020     19023     19026     19028
     19020     19023     19026     19029     19021     19020     19023     19024
     19021     19020     19023     19025     19021     19020     19023     19026
     19022     19020     19023     19024     19022     19020     19023     19025
     19022     19020     19023     19026     19023     19026     19029     19030
     19023     19026     19029     19031     19023     19026     19029     19032
     19024     19023     19026     19027     19024     19023     19026     19028
     19024     19023     19026     19029     19025     19023     19026     19027
     19025     19023     19026     19028     19025     19023     19026     19029
     19026     19029     19032     19033     19026     19029     19032     19034
     19026     19029     19032     19035     19027     19026     19029     19030
     19027     19026     19029     19031     19027     19026     19029     19032
     19028     19026     19029     19030     19028     19026     19029     19031
     19028     19026     19029     19032     19029     19032     19035     19036
     19029     19032     19035     19037     19029     19032     19035     19038
     19030     19029     19032     19033     19030     19029     19032     19034
     19030     19029     19032     19035     19031     19029     19032     19033
     19031     19029     19032     19034     19031     19029     19032     19035
     19032     19035     19038     19039     19032     19035     19038     19040
     19032     19035     19038     19041     19033     19032     19035     19036
     19033     19032     19035     19037     19033     19032     19035     19038
     19034     19032     19035     19036     19034     19032     19035     19037
     19034     19032     19035     19038     19035     19038     19041     19042
     19035     19038     19041     19043     19035     19038     19041     19044
     19036     19035     19038     19039     19036     19035     19038     19040
     19036     19035     19038     19041     19037     19035     19038     19039
     19037     19035     19038     19040     19037     19035     19038     19041
     19039     19038     19041     19042     19039     19038     19041     19043
     19039     19038     19041     19044     19040     19038     19041     19042
     19040     19038     19041     19043     19040     19038     19041     19044
     19045     19049     19052     19053     19045     19049     19052     19054
     19045     19049     19052     19059     19046     19045     19049     19050
     19046     19045     19049     19051     19046     19045     19049     19052
     19047     19045     19049     19050     19047     19045     19049     19051
     19047     19045     19049     19052     19048     19045     19049     19050
     19048     19045     19049     19051     19048     19045     19049     19052
     19049     19052     19059     19055     19050     19049     19052     19053
     19050     19049     19052     19054     19050     19049     19052     19059
     19051     19049     19052     19053     19051     19049     19052     19054
     19051     19049     19052     19059     19052     19059     19055     19056
     19052     19059     19055     19057     19052     19059     19055     19058
     19053     19052     19059     19055     19054     19052     19059     19055
     19055     19058     19060     19061     19055     19058     19060     19062
     19055     19058     19060     19063     19056     19055     19058     19060
     19057     19055     19058     19060     19058     19060     19063     19064
     19058     19060     19063     19065     19058     19060     19063     19071
     19059     19055     19058     19060     19060     19063     19065     19066
     19060     19063     19071     19072     19060     19063     19071     19073
     19060     19063     19071     19074     19061     19060     19063     19064
     19061     19060     19063     19065     19061     19060     19063     19071
     19062     19060     19063     19064     19062     19060     19063     19065
     19062     19060     19063     19071     19063     19065     19066     19067
     19063     19065     19066     19068     19063     19071     19074     19075
     19064     19063     19065     19066     19064     19063     19071     19072
     19064     19063     19071     19073     19064     19063     19071     19074
     19065     19063     19071     19072     19065     19063     19071     19073
     19065     19063     19071     19074     19065     19066     19068     19069
     19065     19066     19068     19070     19065     19066     19068     19080
     19066     19065     19063     19071     19066     19068     19080     19081
     19066     19068     19080     19082     19066     19068     19080     19083
     19067     19066     19068     19069     19067     19066     19068     19070
     19067     19066     19068     19080     19068     19080     19083     19084
     19068     19080     19083     19085     19068     19080     19083     19086
     19069     19068     19080     19081     19069     19068     19080     19082
     19069     19068     19080     19083     19070     19068     19080     19081
     19070     19068     19080     19082     19070     19068     19080     19083
     19071     19074     19075     19076     19071     19074     19075     19077
     19072     19071     19074     19075     19073     19071     19074     19075
     19074     19075     19077     19078     19074     19075     19077     19079
     19074     19075     19077     19124     19075     19077     19124     19125
     19075     19077     19124     19126     19075     19077     19124     19127
     19076     19075     19077     19078     19076     19075     19077     19079
     19076     19075     19077     19124     19077     19124     19127     19128
     19077     19124     19127     19129     19077     19124     19127     19130
     19078     19077     19124     19125     19078     19077     19124     19126
     19078     19077     19124     19127     19079     19077     19124     19125
     19079     19077     19124     19126     19079     19077     19124     19127
     19080     19083     19086     19087     19080     19083     19086     19088
     19080     19083     19086     19089     19081     19080     19083     19084
     19081     19080     19083     19085     19081     19080     19083     19086
     19082     19080     19083     19084     19082     19080     19083     19085
     19082     19080     19083     19086     19083     19086     19089     19090
     19083     19086     19089     19091     19083     19086     19089     19092
     19084     19083     19086     19087     19084     19083     19086     19088
     19084     19083     19086     19089     19085     19083     19086     19087
     19085     19083     19086     19088     19085     19083     19086     19089
     19086     19089     19092     19093     19086     19089     19092     19094
     19086     19089     19092     19095     19087     19086     19089     19090
     19087     19086     19089     19091     19087     19086     19089     19092
     19088     19086     19089     19090     19088     19086     19089     19091
     19088     19086     19089     19092     19089     19092     19095     19096
     19089     19092     19095     19097     19089     19092     19095     19098
     19090     19089     19092     19093     19090     19089     19092     19094
     19090     19089     19092     19095     19091     19089     19092     19093
     19091     19089     19092     19094     19091     19089     19092     19095
     19092     19095     19098     19099     19092     19095     19098     19100
     19092     19095     19098     19103     19093     19092     19095     19096
     19093     19092     19095     19097     19093     19092     19095     19098
     19094     19092     19095     19096     19094     19092     19095     19097
     19094     19092     19095     19098     19095     19098     19100     19101
     19095     19098     19100     19102     19095     19098     19100     19103
     19095     19098     19103     19100     19095     19098     19103     19104
     19095     19098     19103     19105     19096     19095     19098     19099
     19096     19095     19098     19100     19096     19095     19098     19103
     19097     19095     19098     19099     19097     19095     19098     19100
     19097     19095     19098     19103     19098     19100     19103     19104
     19098     19100     19103     19105     19098     19103     19100     19101
     19098     19103     19100     19102     19098     19103     19105     19106
     19098     19103     19105     19107     19098     19103     19105     19108
     19099     19098     19100     19101     19099     19098     19100     19102
     19099     19098     19100     19103     19099     19098     19103     19100
     19099     19098     19103     19104     19099     19098     19103     19105
     19100     19098     19103     19104     19100     19098     19103     19105
     19100     19103     19105     19106     19100     19103     19105     19107
     19100     19103     19105     19108     19101     19100     19098     19103
     19101     19100     19103     19104     19101     19100     19103     19105
     19102     19100     19098     19103     19102     19100     19103     19104
     19102     19100     19103     19105     19103     19105     19108     19109
     19103     19105     19108     19110     19103     19105     19108     19111
     19104     19103     19105     19106     19104     19103     19105     19107
     19104     19103     19105     19108     19105     19108     19111     19112
     19105     19108     19111     19113     19105     19108     19111     19114
     19106     19105     19108     19109     19106     19105     19108     19110
     19106     19105     19108     19111     19107     19105     19108     19109
     19107     19105     19108     19110     19107     19105     19108     19111
     19108     19111     19114     19115     19108     19111     19114     19116
     19108     19111     19114     19117     19109     19108     19111     19112
     19109     19108     19111     19113     19109     19108     19111     19114
     19110     19108     19111     19112     19110     19108     19111     19113
     19110     19108     19111     19114     19111     19114     19117     19118
     19111     19114     19117     19119     19111     19114     19117     19120
     19112     19111     19114     19115     19112     19111     19114     19116
     19112     19111     19114     19117     19113     19111     19114     19115
     19113     19111     19114     19116     19113     19111     19114     19117
     19114     19117     19120     19121     19114     19117     19120     19122
     19114     19117     19120     19123     19115     19114     19117     19118
     19115     19114     19117     19119     19115     19114     19117     19120
     19116     19114     19117     19118     19116     19114     19117     19119
     19116     19114     19117     19120     19118     19117     19120     19121
     19118     19117     19120     19122     19118     19117     19120     19123
     19119     19117     19120     19121     19119     19117     19120     19122
     19119     19117     19120     19123     19124     19127     19130     19131
     19124     19127     19130     19132     19124     19127     19130     19133
     19125     19124     19127     19128     19125     19124     19127     19129
     19125     19124     19127     19130     19126     19124     19127     19128
     19126     19124     19127     19129     19126     19124     19127     19130
     19127     19130     19133     19134     19127     19130     19133     19135
     19127     19130     19133     19136     19128     19127     19130     19131
     19128     19127     19130     19132     19128     19127     19130     19133
     19129     19127     19130     19131     19129     19127     19130     19132
     19129     19127     19130     19133     19130     19133     19136     19137
     19130     19133     19136     19138     19130     19133     19136     19139
     19131     19130     19133     19134     19131     19130     19133     19135
     19131     19130     19133     19136     19132     19130     19133     19134
     19132     19130     19133     19135     19132     19130     19133     19136
     19133     19136     19139     19140     19133     19136     19139     19141
     19133     19136     19139     19142     19134     19133     19136     19137
     19134     19133     19136     19138     19134     19133     19136     19139
     19135     19133     19136     19137     19135     19133     19136     19138
     19135     19133     19136     19139     19136     19139     19142     19143
     19136     19139     19142     19144     19136     19139     19142     19145
     19137     19136     19139     19140     19137     19136     19139     19141
     19137     19136     19139     19142     19138     19136     19139     19140
     19138     19136     19139     19141     19138     19136     19139     19142
     19139     19142     19145     19146     19139     19142     19145     19147
     19139     19142     19145     19148     19140     19139     19142     19143
     19140     19139     19142     19144     19140     19139     19142     19145
     19141     19139     19142     19143     19141     19139     19142     19144
     19141     19139     19142     19145     19142     19145     19148     19149
     19142     19145     19148     19150     19142     19145     19148     19151
     19143     19142     19145     19146     19143     19142     19145     19147
     19143     19142     19145     19148     19144     19142     19145     19146
     19144     19142     19145     19147     19144     19142     19145     19148
     19145     19148     19151     19152     19145     19148     19151     19153
     19145     19148     19151     19154     19146     19145     19148     19149
     19146     19145     19148     19150     19146     19145     19148     19151
     19147     19145     19148     19149     19147     19145     19148     19150
     19147     19145     19148     19151     19148     19151     19154     19155
     19148     19151     19154     19156     19148     19151     19154     19157
     19149     19148     19151     19152     19149     19148     19151     19153
     19149     19148     19151     19154     19150     19148     19151     19152
     19150     19148     19151     19153     19150     19148     19151     19154
     19151     19154     19157     19158     19151     19154     19157     19159
     19151     19154     19157     19160     19152     19151     19154     19155
     19152     19151     19154     19156     19152     19151     19154     19157
     19153     19151     19154     19155     19153     19151     19154     19156
     19153     19151     19154     19157     19154     19157     19160     19161
     19154     19157     19160     19162     19154     19157     19160     19163
     19155     19154     19157     19158     19155     19154     19157     19159
     19155     19154     19157     19160     19156     19154     19157     19158
     19156     19154     19157     19159     19156     19154     19157     19160
     19157     19160     19163     19164     19157     19160     19163     19165
     19157     19160     19163     19166     19158     19157     19160     19161
     19158     19157     19160     19162     19158     19157     19160     19163
     19159     19157     19160     19161     19159     19157     19160     19162
     19159     19157     19160     19163     19161     19160     19163     19164
     19161     19160     19163     19165     19161     19160     19163     19166
     19162     19160     19163     19164     19162     19160     19163     19165
     19162     19160     19163     19166     19167     19172     19174     19175
     19167     19172     19176     19177     19167     19172     19176     19178
     19167     19172     19176     19183     19168     19167     19170     19171
     19168     19167     19172     19173     19168     19167     19172     19174
     19168     19167     19172     19176     19169     19167     19170     19171
     19169     19167     19172     19173     19169     19167     19172     19174
     19169     19167     19172     19176     19170     19167     19172     19173
     19170     19167     19172     19174     19170     19167     19172     19176
     19171     19170     19167     19172     19172     19176     19183     19179
     19173     19172     19174     19175     19173     19172     19176     19177
     19173     19172     19176     19178     19173     19172     19176     19183
     19174     19172     19176     19177     19174     19172     19176     19178
     19174     19172     19176     19183     19175     19174     19172     19176
     19176     19183     19179     19180     19176     19183     19179     19181
     19176     19183     19179     19182     19177     19176     19183     19179
     19178     19176     19183     19179     19179     19182     19184     19185
     19179     19182     19184     19186     19179     19182     19184     19187
     19180     19179     19182     19184     19181     19179     19182     19184
     19182     19184     19187     19188     19182     19184     19187     19189
     19182     19184     19187     19195     19183     19179     19182     19184
     19184     19187     19189     19190     19184     19187     19195     19196
     19184     19187     19195     19197     19184     19187     19195     19198
     19185     19184     19187     19188     19185     19184     19187     19189
     19185     19184     19187     19195     19186     19184     19187     19188
     19186     19184     19187     19189     19186     19184     19187     19195
     19187     19189     19190     19191     19187     19189     19190     19192
     19187     19195     19198     19199     19188     19187     19189     19190
     19188     19187     19195     19196     19188     19187     19195     19197
     19188     19187     19195     19198     19189     19187     19195     19196
     19189     19187     19195     19197     19189     19187     19195     19198
     19189     19190     19192     19193     19189     19190     19192     19194
     19189     19190     19192     19204     19190     19189     19187     19195
     19190     19192     19204     19205     19190     19192     19204     19206
     19190     19192     19204     19207     19191     19190     19192     19193
     19191     19190     19192     19194     19191     19190     19192     19204
     19192     19204     19207     19208     19192     19204     19207     19209
     19192     19204     19207     19210     19193     19192     19204     19205
     19193     19192     19204     19206     19193     19192     19204     19207
     19194     19192     19204     19205     19194     19192     19204     19206
     19194     19192     19204     19207     19195     19198     19199     19200
     19195     19198     19199     19201     19196     19195     19198     19199
     19197     19195     19198     19199     19198     19199     19201     19202
     19198     19199     19201     19203     19198     19199     19201     19245
     19199     19201     19245     19246     19199     19201     19245     19247
     19199     19201     19245     19248     19200     19199     19201     19202
     19200     19199     19201     19203     19200     19199     19201     19245
     19201     19245     19248     19249     19201     19245     19248     19250
     19201     19245     19248     19251     19202     19201     19245     19246
     19202     19201     19245     19247     19202     19201     19245     19248
     19203     19201     19245     19246     19203     19201     19245     19247
     19203     19201     19245     19248     19204     19207     19210     19211
     19204     19207     19210     19212     19204     19207     19210     19213
     19205     19204     19207     19208     19205     19204     19207     19209
     19205     19204     19207     19210     19206     19204     19207     19208
     19206     19204     19207     19209     19206     19204     19207     19210
     19207     19210     19213     19214     19207     19210     19213     19215
     19207     19210     19213     19216     19208     19207     19210     19211
     19208     19207     19210     19212     19208     19207     19210     19213
     19209     19207     19210     19211     19209     19207     19210     19212
     19209     19207     19210     19213     19210     19213     19216     19217
     19210     19213     19216     19218     19210     19213     19216     19219
     19211     19210     19213     19214     19211     19210     19213     19215
     19211     19210     19213     19216     19212     19210     19213     19214
     19212     19210     19213     19215     19212     19210     19213     19216
     19213     19216     19219     19220     19213     19216     19219     19221
     19213     19216     19219     19222     19214     19213     19216     19217
     19214     19213     19216     19218     19214     19213     19216     19219
     19215     19213     19216     19217     19215     19213     19216     19218
     19215     19213     19216     19219     19216     19219     19222     19223
     19216     19219     19222     19224     19217     19216     19219     19220
     19217     19216     19219     19221     19217     19216     19219     19222
     19218     19216     19219     19220     19218     19216     19219     19221
     19218     19216     19219     19222     19219     19222     19224     19225
     19219     19222     19224     19226     19220     19219     19222     19223
     19220     19219     19222     19224     19221     19219     19222     19223
     19221     19219     19222     19224     19222     19224     19226     19227
     19222     19224     19226     19228     19222     19224     19226     19229
     19223     19222     19224     19225     19223     19222     19224     19226
     19224     19226     19229     19230     19224     19226     19229     19231
     19224     19226     19229     19232     19225     19224     19226     19227
     19225     19224     19226     19228     19225     19224     19226     19229
     19226     19229     19232     19233     19226     19229     19232     19234
     19226     19229     19232     19235     19227     19226     19229     19230
     19227     19226     19229     19231     19227     19226     19229     19232
     19228     19226     19229     19230     19228     19226     19229     19231
     19228     19226     19229     19232     19229     19232     19235     19236
     19229     19232     19235     19237     19229     19232     19235     19238
     19230     19229     19232     19233     19230     19229     19232     19234
     19230     19229     19232     19235     19231     19229     19232     19233
     19231     19229     19232     19234     19231     19229     19232     19235
     19232     19235     19238     19239     19232     19235     19238     19240
     19232     19235     19238     19241     19233     19232     19235     19236
     19233     19232     19235     19237     19233     19232     19235     19238
     19234     19232     19235     19236     19234     19232     19235     19237
     19234     19232     19235     19238     19235     19238     19241     19242
     19235     19238     19241     19243     19235     19238     19241     19244
     19236     19235     19238     19239     19236     19235     19238     19240
     19236     19235     19238     19241     19237     19235     19238     19239
     19237     19235     19238     19240     19237     19235     19238     19241
     19239     19238     19241     19242     19239     19238     19241     19243
     19239     19238     19241     19244     19240     19238     19241     19242
     19240     19238     19241     19243     19240     19238     19241     19244
     19245     19248     19251     19252     19245     19248     19251     19253
     19245     19248     19251     19254     19246     19245     19248     19249
     19246     19245     19248     19250     19246     19245     19248     19251
     19247     19245     19248     19249     19247     19245     19248     19250
     19247     19245     19248     19251     19248     19251     19254     19255
     19248     19251     19254     19256     19248     19251     19254     19257
     19249     19248     19251     19252     19249     19248     19251     19253
     19249     19248     19251     19254     19250     19248     19251     19252
     19250     19248     19251     19253     19250     19248     19251     19254
     19251     19254     19257     19258     19251     19254     19257     19259
     19251     19254     19257     19260     19252     19251     19254     19255
     19252     19251     19254     19256     19252     19251     19254     19257
     19253     19251     19254     19255     19253     19251     19254     19256
     19253     19251     19254     19257     19254     19257     19260     19261
     19254     19257     19260     19262     19254     19257     19260     19263
     19255     19254     19257     19258     19255     19254     19257     19259
     19255     19254     19257     19260     19256     19254     19257     19258
     19256     19254     19257     19259     19256     19254     19257     19260
     19257     19260     19263     19264     19257     19260     19263     19265
     19257     19260     19263     19266     19258     19257     19260     19261
     19258     19257     19260     19262     19258     19257     19260     19263
     19259     19257     19260     19261     19259     19257     19260     19262
     19259     19257     19260     19263     19260     19263     19266     19267
     19260     19263     19266     19268     19260     19263     19266     19269
     19261     19260     19263     19264     19261     19260     19263     19265
     19261     19260     19263     19266     19262     19260     19263     19264
     19262     19260     19263     19265     19262     19260     19263     19266
     19263     19266     19269     19270     19263     19266     19269     19271
     19263     19266     19269     19272     19264     19263     19266     19267
     19264     19263     19266     19268     19264     19263     19266     19269
     19265     19263     19266     19267     19265     19263     19266     19268
     19265     19263     19266     19269     19266     19269     19272     19273
     19266     19269     19272     19274     19266     19269     19272     19275
     19267     19266     19269     19270     19267     19266     19269     19271
     19267     19266     19269     19272     19268     19266     19269     19270
     19268     19266     19269     19271     19268     19266     19269     19272
     19269     19272     19275     19276     19269     19272     19275     19277
     19269     19272     19275     19278     19270     19269     19272     19273
     19270     19269     19272     19274     19270     19269     19272     19275
     19271     19269     19272     19273     19271     19269     19272     19274
     19271     19269     19272     19275     19272     19275     19278     19279
     19272     19275     19278     19280     19272     19275     19278     19281
     19273     19272     19275     19276     19273     19272     19275     19277
     19273     19272     19275     19278     19274     19272     19275     19276
     19274     19272     19275     19277     19274     19272     19275     19278
     19275     19278     19281     19282     19275     19278     19281     19283
     19275     19278     19281     19284     19276     19275     19278     19279
     19276     19275     19278     19280     19276     19275     19278     19281
     19277     19275     19278     19279     19277     19275     19278     19280
     19277     19275     19278     19281     19278     19281     19284     19285
     19278     19281     19284     19286     19278     19281     19284     19287
     19279     19278     19281     19282     19279     19278     19281     19283
     19279     19278     19281     19284     19280     19278     19281     19282
     19280     19278     19281     19283     19280     19278     19281     19284
     19282     19281     19284     19285     19282     19281     19284     19286
     19282     19281     19284     19287     19283     19281     19284     19285
     19283     19281     19284     19286     19283     19281     19284     19287
     19288     19292     19295     19296     19288     19292     19295     19297
     19288     19292     19295     19302     19289     19288     19292     19293
     19289     19288     19292     19294     19289     19288     19292     19295
     19290     19288     19292     19293     19290     19288     19292     19294
     19290     19288     19292     19295     19291     19288     19292     19293
     19291     19288     19292     19294     19291     19288     19292     19295
     19292     19295     19302     19298     19293     19292     19295     19296
     19293     19292     19295     19297     19293     19292     19295     19302
     19294     19292     19295     19296     19294     19292     19295     19297
     19294     19292     19295     19302     19295     19302     19298     19299
     19295     19302     19298     19300     19295     19302     19298     19301
     19296     19295     19302     19298     19297     19295     19302     19298
     19298     19301     19303     19304     19298     19301     19303     19305
     19298     19301     19303     19306     19299     19298     19301     19303
     19300     19298     19301     19303     19301     19303     19306     19307
     19301     19303     19306     19308     19301     19303     19306     19314
     19302     19298     19301     19303     19303     19306     19308     19309
     19303     19306     19314     19315     19303     19306     19314     19316
     19303     19306     19314     19317     19304     19303     19306     19307
     19304     19303     19306     19308     19304     19303     19306     19314
     19305     19303     19306     19307     19305     19303     19306     19308
     19305     19303     19306     19314     19306     19308     19309     19310
     19306     19308     19309     19311     19306     19314     19317     19318
     19307     19306     19308     19309     19307     19306     19314     19315
     19307     19306     19314     19316     19307     19306     19314     19317
     19308     19306     19314     19315     19308     19306     19314     19316
     19308     19306     19314     19317     19308     19309     19311     19312
     19308     19309     19311     19313     19308     19309     19311     19323
     19309     19308     19306     19314     19309     19311     19323     19324
     19309     19311     19323     19325     19309     19311     19323     19326
     19310     19309     19311     19312     19310     19309     19311     19313
     19310     19309     19311     19323     19311     19323     19326     19327
     19311     19323     19326     19328     19311     19323     19326     19329
     19312     19311     19323     19324     19312     19311     19323     19325
     19312     19311     19323     19326     19313     19311     19323     19324
     19313     19311     19323     19325     19313     19311     19323     19326
     19314     19317     19318     19319     19314     19317     19318     19320
     19315     19314     19317     19318     19316     19314     19317     19318
     19317     19318     19320     19321     19317     19318     19320     19322
     19317     19318     19320     19367     19318     19320     19367     19368
     19318     19320     19367     19369     19318     19320     19367     19370
     19319     19318     19320     19321     19319     19318     19320     19322
     19319     19318     19320     19367     19320     19367     19370     19371
     19320     19367     19370     19372     19320     19367     19370     19373
     19321     19320     19367     19368     19321     19320     19367     19369
     19321     19320     19367     19370     19322     19320     19367     19368
     19322     19320     19367     19369     19322     19320     19367     19370
     19323     19326     19329     19330     19323     19326     19329     19331
     19323     19326     19329     19332     19324     19323     19326     19327
     19324     19323     19326     19328     19324     19323     19326     19329
     19325     19323     19326     19327     19325     19323     19326     19328
     19325     19323     19326     19329     19326     19329     19332     19333
     19326     19329     19332     19334     19326     19329     19332     19335
     19327     19326     19329     19330     19327     19326     19329     19331
     19327     19326     19329     19332     19328     19326     19329     19330
     19328     19326     19329     19331     19328     19326     19329     19332
     19329     19332     19335     19336     19329     19332     19335     19337
     19329     19332     19335     19338     19330     19329     19332     19333
     19330     19329     19332     19334     19330     19329     19332     19335
     19331     19329     19332     19333     19331     19329     19332     19334
     19331     19329     19332     19335     19332     19335     19338     19339
     19332     19335     19338     19340     19332     19335     19338     19341
     19333     19332     19335     19336     19333     19332     19335     19337
     19333     19332     19335     19338     19334     19332     19335     19336
     19334     19332     19335     19337     19334     19332     19335     19338
     19335     19338     19341     19342     19335     19338     19341     19343
     19335     19338     19341     19346     19336     19335     19338     19339
     19336     19335     19338     19340     19336     19335     19338     19341
     19337     19335     19338     19339     19337     19335     19338     19340
     19337     19335     19338     19341     19338     19341     19343     19344
     19338     19341     19343     19345     19338     19341     19343     19346
     19338     19341     19346     19343     19338     19341     19346     19347
     19338     19341     19346     19348     19339     19338     19341     19342
     19339     19338     19341     19343     19339     19338     19341     19346
     19340     19338     19341     19342     19340     19338     19341     19343
     19340     19338     19341     19346     19341     19343     19346     19347
     19341     19343     19346     19348     19341     19346     19343     19344
     19341     19346     19343     19345     19341     19346     19348     19349
     19341     19346     19348     19350     19341     19346     19348     19351
     19342     19341     19343     19344     19342     19341     19343     19345
     19342     19341     19343     19346     19342     19341     19346     19343
     19342     19341     19346     19347     19342     19341     19346     19348
     19343     19341     19346     19347     19343     19341     19346     19348
     19343     19346     19348     19349     19343     19346     19348     19350
     19343     19346     19348     19351     19344     19343     19341     19346
     19344     19343     19346     19347     19344     19343     19346     19348
     19345     19343     19341     19346     19345     19343     19346     19347
     19345     19343     19346     19348     19346     19348     19351     19352
     19346     19348     19351     19353     19346     19348     19351     19354
     19347     19346     19348     19349     19347     19346     19348     19350
     19347     19346     19348     19351     19348     19351     19354     19355
     19348     19351     19354     19356     19348     19351     19354     19357
     19349     19348     19351     19352     19349     19348     19351     19353
     19349     19348     19351     19354     19350     19348     19351     19352
     19350     19348     19351     19353     19350     19348     19351     19354
     19351     19354     19357     19358     19351     19354     19357     19359
     19351     19354     19357     19360     19352     19351     19354     19355
     19352     19351     19354     19356     19352     19351     19354     19357
     19353     19351     19354     19355     19353     19351     19354     19356
     19353     19351     19354     19357     19354     19357     19360     19361
     19354     19357     19360     19362     19354     19357     19360     19363
     19355     19354     19357     19358     19355     19354     19357     19359
     19355     19354     19357     19360     19356     19354     19357     19358
     19356     19354     19357     19359     19356     19354     19357     19360
     19357     19360     19363     19364     19357     19360     19363     19365
     19357     19360     19363     19366     19358     19357     19360     19361
     19358     19357     19360     19362     19358     19357     19360     19363
     19359     19357     19360     19361     19359     19357     19360     19362
     19359     19357     19360     19363     19361     19360     19363     19364
     19361     19360     19363     19365     19361     19360     19363     19366
     19362     19360     19363     19364     19362     19360     19363     19365
     19362     19360     19363     19366     19367     19370     19373     19374
     19367     19370     19373     19375     19367     19370     19373     19376
     19368     19367     19370     19371     19368     19367     19370     19372
     19368     19367     19370     19373     19369     19367     19370     19371
     19369     19367     19370     19372     19369     19367     19370     19373
     19370     19373     19376     19377     19370     19373     19376     19378
     19370     19373     19376     19379     19371     19370     19373     19374
     19371     19370     19373     19375     19371     19370     19373     19376
     19372     19370     19373     19374     19372     19370     19373     19375
     19372     19370     19373     19376     19373     19376     19379     19380
     19373     19376     19379     19381     19373     19376     19379     19382
     19374     19373     19376     19377     19374     19373     19376     19378
     19374     19373     19376     19379     19375     19373     19376     19377
     19375     19373     19376     19378     19375     19373     19376     19379
     19376     19379     19382     19383     19376     19379     19382     19384
     19376     19379     19382     19385     19377     19376     19379     19380
     19377     19376     19379     19381     19377     19376     19379     19382
     19378     19376     19379     19380     19378     19376     19379     19381
     19378     19376     19379     19382     19379     19382     19385     19386
     19379     19382     19385     19387     19379     19382     19385     19388
     19380     19379     19382     19383     19380     19379     19382     19384
     19380     19379     19382     19385     19381     19379     19382     19383
     19381     19379     19382     19384     19381     19379     19382     19385
     19382     19385     19388     19389     19382     19385     19388     19390
     19382     19385     19388     19391     19383     19382     19385     19386
     19383     19382     19385     19387     19383     19382     19385     19388
     19384     19382     19385     19386     19384     19382     19385     19387
     19384     19382     19385     19388     19385     19388     19391     19392
     19385     19388     19391     19393     19385     19388     19391     19394
     19386     19385     19388     19389     19386     19385     19388     19390
     19386     19385     19388     19391     19387     19385     19388     19389
     19387     19385     19388     19390     19387     19385     19388     19391
     19388     19391     19394     19395     19388     19391     19394     19396
     19388     19391     19394     19397     19389     19388     19391     19392
     19389     19388     19391     19393     19389     19388     19391     19394
     19390     19388     19391     19392     19390     19388     19391     19393
     19390     19388     19391     19394     19391     19394     19397     19398
     19391     19394     19397     19399     19391     19394     19397     19400
     19392     19391     19394     19395     19392     19391     19394     19396
     19392     19391     19394     19397     19393     19391     19394     19395
     19393     19391     19394     19396     19393     19391     19394     19397
     19394     19397     19400     19401     19394     19397     19400     19402
     19394     19397     19400     19403     19395     19394     19397     19398
     19395     19394     19397     19399     19395     19394     19397     19400
     19396     19394     19397     19398     19396     19394     19397     19399
     19396     19394     19397     19400     19397     19400     19403     19404
     19397     19400     19403     19405     19397     19400     19403     19406
     19398     19397     19400     19401     19398     19397     19400     19402
     19398     19397     19400     19403     19399     19397     19400     19401
     19399     19397     19400     19402     19399     19397     19400     19403
     19400     19403     19406     19407     19400     19403     19406     19408
     19400     19403     19406     19409     19401     19400     19403     19404
     19401     19400     19403     19405     19401     19400     19403     19406
     19402     19400     19403     19404     19402     19400     19403     19405
     19402     19400     19403     19406     19404     19403     19406     19407
     19404     19403     19406     19408     19404     19403     19406     19409
     19405     19403     19406     19407     19405     19403     19406     19408
     19405     19403     19406     19409     19410     19414     19417     19418
     19410     19414     19417     19419     19410     19414     19417     19424
     19411     19410     19414     19415     19411     19410     19414     19416
     19411     19410     19414     19417     19412     19410     19414     19415
     19412     19410     19414     19416     19412     19410     19414     19417
     19413     19410     19414     19415     19413     19410     19414     19416
     19413     19410     19414     19417     19414     19417     19424     19420
     19415     19414     19417     19418     19415     19414     19417     19419
     19415     19414     19417     19424     19416     19414     19417     19418
     19416     19414     19417     19419     19416     19414     19417     19424
     19417     19424     19420     19421     19417     19424     19420     19422
     19417     19424     19420     19423     19418     19417     19424     19420
     19419     19417     19424     19420     19420     19423     19425     19426
     19420     19423     19425     19427     19420     19423     19425     19428
     19421     19420     19423     19425     19422     19420     19423     19425
     19423     19425     19428     19429     19423     19425     19428     19430
     19423     19425     19428     19436     19424     19420     19423     19425
     19425     19428     19430     19431     19425     19428     19436     19437
     19425     19428     19436     19438     19425     19428     19436     19439
     19426     19425     19428     19429     19426     19425     19428     19430
     19426     19425     19428     19436     19427     19425     19428     19429
     19427     19425     19428     19430     19427     19425     19428     19436
     19428     19430     19431     19432     19428     19430     19431     19433
     19428     19436     19439     19440     19429     19428     19430     19431
     19429     19428     19436     19437     19429     19428     19436     19438
     19429     19428     19436     19439     19430     19428     19436     19437
     19430     19428     19436     19438     19430     19428     19436     19439
     19430     19431     19433     19434     19430     19431     19433     19435
     19430     19431     19433     19445     19431     19430     19428     19436
     19431     19433     19445     19446     19431     19433     19445     19447
     19431     19433     19445     19448     19432     19431     19433     19434
     19432     19431     19433     19435     19432     19431     19433     19445
     19433     19445     19448     19449     19433     19445     19448     19450
     19433     19445     19448     19451     19434     19433     19445     19446
     19434     19433     19445     19447     19434     19433     19445     19448
     19435     19433     19445     19446     19435     19433     19445     19447
     19435     19433     19445     19448     19436     19439     19440     19441
     19436     19439     19440     19442     19437     19436     19439     19440
     19438     19436     19439     19440     19439     19440     19442     19443
     19439     19440     19442     19444     19439     19440     19442     19489
     19440     19442     19489     19490     19440     19442     19489     19491
     19440     19442     19489     19492     19441     19440     19442     19443
     19441     19440     19442     19444     19441     19440     19442     19489
     19442     19489     19492     19493     19442     19489     19492     19494
     19442     19489     19492     19495     19443     19442     19489     19490
     19443     19442     19489     19491     19443     19442     19489     19492
     19444     19442     19489     19490     19444     19442     19489     19491
     19444     19442     19489     19492     19445     19448     19451     19452
     19445     19448     19451     19453     19445     19448     19451     19454
     19446     19445     19448     19449     19446     19445     19448     19450
     19446     19445     19448     19451     19447     19445     19448     19449
     19447     19445     19448     19450     19447     19445     19448     19451
     19448     19451     19454     19455     19448     19451     19454     19456
     19448     19451     19454     19457     19449     19448     19451     19452
     19449     19448     19451     19453     19449     19448     19451     19454
     19450     19448     19451     19452     19450     19448     19451     19453
     19450     19448     19451     19454     19451     19454     19457     19458
     19451     19454     19457     19459     19451     19454     19457     19460
     19452     19451     19454     19455     19452     19451     19454     19456
     19452     19451     19454     19457     19453     19451     19454     19455
     19453     19451     19454     19456     19453     19451     19454     19457
     19454     19457     19460     19461     19454     19457     19460     19462
     19454     19457     19460     19463     19455     19454     19457     19458
     19455     19454     19457     19459     19455     19454     19457     19460
     19456     19454     19457     19458     19456     19454     19457     19459
     19456     19454     19457     19460     19457     19460     19463     19464
     19457     19460     19463     19465     19457     19460     19463     19468
     19458     19457     19460     19461     19458     19457     19460     19462
     19458     19457     19460     19463     19459     19457     19460     19461
     19459     19457     19460     19462     19459     19457     19460     19463
     19460     19463     19465     19466     19460     19463     19465     19467
     19460     19463     19465     19468     19460     19463     19468     19465
     19460     19463     19468     19469     19460     19463     19468     19470
     19461     19460     19463     19464     19461     19460     19463     19465
     19461     19460     19463     19468     19462     19460     19463     19464
     19462     19460     19463     19465     19462     19460     19463     19468
     19463     19465     19468     19469     19463     19465     19468     19470
     19463     19468     19465     19466     19463     19468     19465     19467
     19463     19468     19470     19471     19463     19468     19470     19472
     19463     19468     19470     19473     19464     19463     19465     19466
     19464     19463     19465     19467     19464     19463     19465     19468
     19464     19463     19468     19465     19464     19463     19468     19469
     19464     19463     19468     19470     19465     19463     19468     19469
     19465     19463     19468     19470     19465     19468     19470     19471
     19465     19468     19470     19472     19465     19468     19470     19473
     19466     19465     19463     19468     19466     19465     19468     19469
     19466     19465     19468     19470     19467     19465     19463     19468
     19467     19465     19468     19469     19467     19465     19468     19470
     19468     19470     19473     19474     19468     19470     19473     19475
     19468     19470     19473     19476     19469     19468     19470     19471
     19469     19468     19470     19472     19469     19468     19470     19473
     19470     19473     19476     19477     19470     19473     19476     19478
     19470     19473     19476     19479     19471     19470     19473     19474
     19471     19470     19473     19475     19471     19470     19473     19476
     19472     19470     19473     19474     19472     19470     19473     19475
     19472     19470     19473     19476     19473     19476     19479     19480
     19473     19476     19479     19481     19473     19476     19479     19482
     19474     19473     19476     19477     19474     19473     19476     19478
     19474     19473     19476     19479     19475     19473     19476     19477
     19475     19473     19476     19478     19475     19473     19476     19479
     19476     19479     19482     19483     19476     19479     19482     19484
     19476     19479     19482     19485     19477     19476     19479     19480
     19477     19476     19479     19481     19477     19476     19479     19482
     19478     19476     19479     19480     19478     19476     19479     19481
     19478     19476     19479     19482     19479     19482     19485     19486
     19479     19482     19485     19487     19479     19482     19485     19488
     19480     19479     19482     19483     19480     19479     19482     19484
     19480     19479     19482     19485     19481     19479     19482     19483
     19481     19479     19482     19484     19481     19479     19482     19485
     19483     19482     19485     19486     19483     19482     19485     19487
     19483     19482     19485     19488     19484     19482     19485     19486
     19484     19482     19485     19487     19484     19482     19485     19488
     19489     19492     19495     19496     19489     19492     19495     19497
     19489     19492     19495     19498     19490     19489     19492     19493
     19490     19489     19492     19494     19490     19489     19492     19495
     19491     19489     19492     19493     19491     19489     19492     19494
     19491     19489     19492     19495     19492     19495     19498     19499
     19492     19495     19498     19500     19492     19495     19498     19501
     19493     19492     19495     19496     19493     19492     19495     19497
     19493     19492     19495     19498     19494     19492     19495     19496
     19494     19492     19495     19497     19494     19492     19495     19498
     19495     19498     19501     19502     19495     19498     19501     19503
     19495     19498     19501     19504     19496     19495     19498     19499
     19496     19495     19498     19500     19496     19495     19498     19501
     19497     19495     19498     19499     19497     19495     19498     19500
     19497     19495     19498     19501     19498     19501     19504     19505
     19498     19501     19504     19506     19498     19501     19504     19507
     19499     19498     19501     19502     19499     19498     19501     19503
     19499     19498     19501     19504     19500     19498     19501     19502
     19500     19498     19501     19503     19500     19498     19501     19504
     19501     19504     19507     19508     19501     19504     19507     19509
     19501     19504     19507     19510     19502     19501     19504     19505
     19502     19501     19504     19506     19502     19501     19504     19507
     19503     19501     19504     19505     19503     19501     19504     19506
     19503     19501     19504     19507     19504     19507     19510     19511
     19504     19507     19510     19512     19504     19507     19510     19513
     19505     19504     19507     19508     19505     19504     19507     19509
     19505     19504     19507     19510     19506     19504     19507     19508
     19506     19504     19507     19509     19506     19504     19507     19510
     19507     19510     19513     19514     19507     19510     19513     19515
     19507     19510     19513     19516     19508     19507     19510     19511
     19508     19507     19510     19512     19508     19507     19510     19513
     19509     19507     19510     19511     19509     19507     19510     19512
     19509     19507     19510     19513     19510     19513     19516     19517
     19510     19513     19516     19518     19510     19513     19516     19519
     19511     19510     19513     19514     19511     19510     19513     19515
     19511     19510     19513     19516     19512     19510     19513     19514
     19512     19510     19513     19515     19512     19510     19513     19516
     19513     19516     19519     19520     19513     19516     19519     19521
     19513     19516     19519     19522     19514     19513     19516     19517
     19514     19513     19516     19518     19514     19513     19516     19519
     19515     19513     19516     19517     19515     19513     19516     19518
     19515     19513     19516     19519     19516     19519     19522     19523
     19516     19519     19522     19524     19516     19519     19522     19525
     19517     19516     19519     19520     19517     19516     19519     19521
     19517     19516     19519     19522     19518     19516     19519     19520
     19518     19516     19519     19521     19518     19516     19519     19522
     19519     19522     19525     19526     19519     19522     19525     19527
     19519     19522     19525     19528     19520     19519     19522     19523
     19520     19519     19522     19524     19520     19519     19522     19525
     19521     19519     19522     19523     19521     19519     19522     19524
     19521     19519     19522     19525     19522     19525     19528     19529
     19522     19525     19528     19530     19522     19525     19528     19531
     19523     19522     19525     19526     19523     19522     19525     19527
     19523     19522     19525     19528     19524     19522     19525     19526
     19524     19522     19525     19527     19524     19522     19525     19528
     19526     19525     19528     19529     19526     19525     19528     19530
     19526     19525     19528     19531     19527     19525     19528     19529
     19527     19525     19528     19530     19527     19525     19528     19531
     19532     19536     19539     19540     19532     19536     19539     19541
     19532     19536     19539     19546     19533     19532     19536     19537
     19533     19532     19536     19538     19533     19532     19536     19539
     19534     19532     19536     19537     19534     19532     19536     19538
     19534     19532     19536     19539     19535     19532     19536     19537
     19535     19532     19536     19538     19535     19532     19536     19539
     19536     19539     19546     19542     19537     19536     19539     19540
     19537     19536     19539     19541     19537     19536     19539     19546
     19538     19536     19539     19540     19538     19536     19539     19541
     19538     19536     19539     19546     19539     19546     19542     19543
     19539     19546     19542     19544     19539     19546     19542     19545
     19540     19539     19546     19542     19541     19539     19546     19542
     19542     19545     19547     19548     19542     19545     19547     19549
     19542     19545     19547     19550     19543     19542     19545     19547
     19544     19542     19545     19547     19545     19547     19550     19551
     19545     19547     19550     19552     19545     19547     19550     19558
     19546     19542     19545     19547     19547     19550     19552     19553
     19547     19550     19558     19559     19547     19550     19558     19560
     19547     19550     19558     19561     19548     19547     19550     19551
     19548     19547     19550     19552     19548     19547     19550     19558
     19549     19547     19550     19551     19549     19547     19550     19552
     19549     19547     19550     19558     19550     19552     19553     19554
     19550     19552     19553     19555     19550     19558     19561     19562
     19551     19550     19552     19553     19551     19550     19558     19559
     19551     19550     19558     19560     19551     19550     19558     19561
     19552     19550     19558     19559     19552     19550     19558     19560
     19552     19550     19558     19561     19552     19553     19555     19556
     19552     19553     19555     19557     19552     19553     19555     19567
     19553     19552     19550     19558     19553     19555     19567     19568
     19553     19555     19567     19569     19553     19555     19567     19570
     19554     19553     19555     19556     19554     19553     19555     19557
     19554     19553     19555     19567     19555     19567     19570     19571
     19555     19567     19570     19572     19555     19567     19570     19573
     19556     19555     19567     19568     19556     19555     19567     19569
     19556     19555     19567     19570     19557     19555     19567     19568
     19557     19555     19567     19569     19557     19555     19567     19570
     19558     19561     19562     19563     19558     19561     19562     19564
     19559     19558     19561     19562     19560     19558     19561     19562
     19561     19562     19564     19565     19561     19562     19564     19566
     19561     19562     19564     19611     19562     19564     19611     19612
     19562     19564     19611     19613     19562     19564     19611     19614
     19563     19562     19564     19565     19563     19562     19564     19566
     19563     19562     19564     19611     19564     19611     19614     19615
     19564     19611     19614     19616     19564     19611     19614     19617
     19565     19564     19611     19612     19565     19564     19611     19613
     19565     19564     19611     19614     19566     19564     19611     19612
     19566     19564     19611     19613     19566     19564     19611     19614
     19567     19570     19573     19574     19567     19570     19573     19575
     19567     19570     19573     19576     19568     19567     19570     19571
     19568     19567     19570     19572     19568     19567     19570     19573
     19569     19567     19570     19571     19569     19567     19570     19572
     19569     19567     19570     19573     19570     19573     19576     19577
     19570     19573     19576     19578     19570     19573     19576     19579
     19571     19570     19573     19574     19571     19570     19573     19575
     19571     19570     19573     19576     19572     19570     19573     19574
     19572     19570     19573     19575     19572     19570     19573     19576
     19573     19576     19579     19580     19573     19576     19579     19581
     19573     19576     19579     19582     19574     19573     19576     19577
     19574     19573     19576     19578     19574     19573     19576     19579
     19575     19573     19576     19577     19575     19573     19576     19578
     19575     19573     19576     19579     19576     19579     19582     19583
     19576     19579     19582     19584     19576     19579     19582     19585
     19577     19576     19579     19580     19577     19576     19579     19581
     19577     19576     19579     19582     19578     19576     19579     19580
     19578     19576     19579     19581     19578     19576     19579     19582
     19579     19582     19585     19586     19579     19582     19585     19587
     19579     19582     19585     19590     19580     19579     19582     19583
     19580     19579     19582     19584     19580     19579     19582     19585
     19581     19579     19582     19583     19581     19579     19582     19584
     19581     19579     19582     19585     19582     19585     19587     19588
     19582     19585     19587     19589     19582     19585     19587     19590
     19582     19585     19590     19587     19582     19585     19590     19591
     19582     19585     19590     19592     19583     19582     19585     19586
     19583     19582     19585     19587     19583     19582     19585     19590
     19584     19582     19585     19586     19584     19582     19585     19587
     19584     19582     19585     19590     19585     19587     19590     19591
     19585     19587     19590     19592     19585     19590     19587     19588
     19585     19590     19587     19589     19585     19590     19592     19593
     19585     19590     19592     19594     19585     19590     19592     19595
     19586     19585     19587     19588     19586     19585     19587     19589
     19586     19585     19587     19590     19586     19585     19590     19587
     19586     19585     19590     19591     19586     19585     19590     19592
     19587     19585     19590     19591     19587     19585     19590     19592
     19587     19590     19592     19593     19587     19590     19592     19594
     19587     19590     19592     19595     19588     19587     19585     19590
     19588     19587     19590     19591     19588     19587     19590     19592
     19589     19587     19585     19590     19589     19587     19590     19591
     19589     19587     19590     19592     19590     19592     19595     19596
     19590     19592     19595     19597     19590     19592     19595     19598
     19591     19590     19592     19593     19591     19590     19592     19594
     19591     19590     19592     19595     19592     19595     19598     19599
     19592     19595     19598     19600     19592     19595     19598     19601
     19593     19592     19595     19596     19593     19592     19595     19597
     19593     19592     19595     19598     19594     19592     19595     19596
     19594     19592     19595     19597     19594     19592     19595     19598
     19595     19598     19601     19602     19595     19598     19601     19603
     19595     19598     19601     19604     19596     19595     19598     19599
     19596     19595     19598     19600     19596     19595     19598     19601
     19597     19595     19598     19599     19597     19595     19598     19600
     19597     19595     19598     19601     19598     19601     19604     19605
     19598     19601     19604     19606     19598     19601     19604     19607
     19599     19598     19601     19602     19599     19598     19601     19603
     19599     19598     19601     19604     19600     19598     19601     19602
     19600     19598     19601     19603     19600     19598     19601     19604
     19601     19604     19607     19608     19601     19604     19607     19609
     19601     19604     19607     19610     19602     19601     19604     19605
     19602     19601     19604     19606     19602     19601     19604     19607
     19603     19601     19604     19605     19603     19601     19604     19606
     19603     19601     19604     19607     19605     19604     19607     19608
     19605     19604     19607     19609     19605     19604     19607     19610
     19606     19604     19607     19608     19606     19604     19607     19609
     19606     19604     19607     19610     19611     19614     19617     19618
     19611     19614     19617     19619     19611     19614     19617     19620
     19612     19611     19614     19615     19612     19611     19614     19616
     19612     19611     19614     19617     19613     19611     19614     19615
     19613     19611     19614     19616     19613     19611     19614     19617
     19614     19617     19620     19621     19614     19617     19620     19622
     19614     19617     19620     19623     19615     19614     19617     19618
     19615     19614     19617     19619     19615     19614     19617     19620
     19616     19614     19617     19618     19616     19614     19617     19619
     19616     19614     19617     19620     19617     19620     19623     19624
     19617     19620     19623     19625     19617     19620     19623     19626
     19618     19617     19620     19621     19618     19617     19620     19622
     19618     19617     19620     19623     19619     19617     19620     19621
     19619     19617     19620     19622     19619     19617     19620     19623
     19620     19623     19626     19627     19620     19623     19626     19628
     19620     19623     19626     19629     19621     19620     19623     19624
     19621     19620     19623     19625     19621     19620     19623     19626
     19622     19620     19623     19624     19622     19620     19623     19625
     19622     19620     19623     19626     19623     19626     19629     19630
     19623     19626     19629     19631     19623     19626     19629     19632
     19624     19623     19626     19627     19624     19623     19626     19628
     19624     19623     19626     19629     19625     19623     19626     19627
     19625     19623     19626     19628     19625     19623     19626     19629
     19626     19629     19632     19633     19626     19629     19632     19634
     19626     19629     19632     19635     19627     19626     19629     19630
     19627     19626     19629     19631     19627     19626     19629     19632
     19628     19626     19629     19630     19628     19626     19629     19631
     19628     19626     19629     19632     19629     19632     19635     19636
     19629     19632     19635     19637     19629     19632     19635     19638
     19630     19629     19632     19633     19630     19629     19632     19634
     19630     19629     19632     19635     19631     19629     19632     19633
     19631     19629     19632     19634     19631     19629     19632     19635
     19632     19635     19638     19639     19632     19635     19638     19640
     19632     19635     19638     19641     19633     19632     19635     19636
     19633     19632     19635     19637     19633     19632     19635     19638
     19634     19632     19635     19636     19634     19632     19635     19637
     19634     19632     19635     19638     19635     19638     19641     19642
     19635     19638     19641     19643     19635     19638     19641     19644
     19636     19635     19638     19639     19636     19635     19638     19640
     19636     19635     19638     19641     19637     19635     19638     19639
     19637     19635     19638     19640     19637     19635     19638     19641
     19638     19641     19644     19645     19638     19641     19644     19646
     19638     19641     19644     19647     19639     19638     19641     19642
     19639     19638     19641     19643     19639     19638     19641     19644
     19640     19638     19641     19642     19640     19638     19641     19643
     19640     19638     19641     19644     19641     19644     19647     19648
     19641     19644     19647     19649     19641     19644     19647     19650
     19642     19641     19644     19645     19642     19641     19644     19646
     19642     19641     19644     19647     19643     19641     19644     19645
     19643     19641     19644     19646     19643     19641     19644     19647
     19644     19647     19650     19651     19644     19647     19650     19652
     19644     19647     19650     19653     19645     19644     19647     19648
     19645     19644     19647     19649     19645     19644     19647     19650
     19646     19644     19647     19648     19646     19644     19647     19649
     19646     19644     19647     19650     19648     19647     19650     19651
     19648     19647     19650     19652     19648     19647     19650     19653
     19649     19647     19650     19651     19649     19647     19650     19652
     19649     19647     19650     19653     19654     19659     19661     19662
     19654     19659     19663     19664     19654     19659     19663     19665
     19654     19659     19663     19670     19655     19654     19657     19658
     19655     19654     19659     19660     19655     19654     19659     19661
     19655     19654     19659     19663     19656     19654     19657     19658
     19656     19654     19659     19660     19656     19654     19659     19661
     19656     19654     19659     19663     19657     19654     19659     19660
     19657     19654     19659     19661     19657     19654     19659     19663
     19658     19657     19654     19659     19659     19663     19670     19666
     19660     19659     19661     19662     19660     19659     19663     19664
     19660     19659     19663     19665     19660     19659     19663     19670
     19661     19659     19663     19664     19661     19659     19663     19665
     19661     19659     19663     19670     19662     19661     19659     19663
     19663     19670     19666     19667     19663     19670     19666     19668
     19663     19670     19666     19669     19664     19663     19670     19666
     19665     19663     19670     19666     19666     19669     19671     19672
     19666     19669     19671     19673     19666     19669     19671     19674
     19667     19666     19669     19671     19668     19666     19669     19671
     19669     19671     19674     19675     19669     19671     19674     19676
     19669     19671     19674     19682     19670     19666     19669     19671
     19671     19674     19676     19677     19671     19674     19682     19683
     19671     19674     19682     19684     19671     19674     19682     19685
     19672     19671     19674     19675     19672     19671     19674     19676
     19672     19671     19674     19682     19673     19671     19674     19675
     19673     19671     19674     19676     19673     19671     19674     19682
     19674     19676     19677     19678     19674     19676     19677     19679
     19674     19682     19685     19686     19675     19674     19676     19677
     19675     19674     19682     19683     19675     19674     19682     19684
     19675     19674     19682     19685     19676     19674     19682     19683
     19676     19674     19682     19684     19676     19674     19682     19685
     19676     19677     19679     19680     19676     19677     19679     19681
     19676     19677     19679     19691     19677     19676     19674     19682
     19677     19679     19691     19692     19677     19679     19691     19693
     19677     19679     19691     19694     19678     19677     19679     19680
     19678     19677     19679     19681     19678     19677     19679     19691
     19679     19691     19694     19695     19679     19691     19694     19696
     19679     19691     19694     19697     19680     19679     19691     19692
     19680     19679     19691     19693     19680     19679     19691     19694
     19681     19679     19691     19692     19681     19679     19691     19693
     19681     19679     19691     19694     19682     19685     19686     19687
     19682     19685     19686     19688     19683     19682     19685     19686
     19684     19682     19685     19686     19685     19686     19688     19689
     19685     19686     19688     19690     19685     19686     19688     19735
     19686     19688     19735     19736     19686     19688     19735     19737
     19686     19688     19735     19738     19687     19686     19688     19689
     19687     19686     19688     19690     19687     19686     19688     19735
     19688     19735     19738     19739     19688     19735     19738     19740
     19688     19735     19738     19741     19689     19688     19735     19736
     19689     19688     19735     19737     19689     19688     19735     19738
     19690     19688     19735     19736     19690     19688     19735     19737
     19690     19688     19735     19738     19691     19694     19697     19698
     19691     19694     19697     19699     19691     19694     19697     19700
     19692     19691     19694     19695     19692     19691     19694     19696
     19692     19691     19694     19697     19693     19691     19694     19695
     19693     19691     19694     19696     19693     19691     19694     19697
     19694     19697     19700     19701     19694     19697     19700     19702
     19694     19697     19700     19703     19695     19694     19697     19698
     19695     19694     19697     19699     19695     19694     19697     19700
     19696     19694     19697     19698     19696     19694     19697     19699
     19696     19694     19697     19700     19697     19700     19703     19704
     19697     19700     19703     19705     19697     19700     19703     19706
     19698     19697     19700     19701     19698     19697     19700     19702
     19698     19697     19700     19703     19699     19697     19700     19701
     19699     19697     19700     19702     19699     19697     19700     19703
     19700     19703     19706     19707     19700     19703     19706     19708
     19700     19703     19706     19709     19701     19700     19703     19704
     19701     19700     19703     19705     19701     19700     19703     19706
     19702     19700     19703     19704     19702     19700     19703     19705
     19702     19700     19703     19706     19703     19706     19709     19710
     19703     19706     19709     19711     19703     19706     19709     19714
     19704     19703     19706     19707     19704     19703     19706     19708
     19704     19703     19706     19709     19705     19703     19706     19707
     19705     19703     19706     19708     19705     19703     19706     19709
     19706     19709     19711     19712     19706     19709     19711     19713
     19706     19709     19711     19714     19706     19709     19714     19711
     19706     19709     19714     19715     19706     19709     19714     19716
     19707     19706     19709     19710     19707     19706     19709     19711
     19707     19706     19709     19714     19708     19706     19709     19710
     19708     19706     19709     19711     19708     19706     19709     19714
     19709     19711     19714     19715     19709     19711     19714     19716
     19709     19714     19711     19712     19709     19714     19711     19713
     19709     19714     19716     19717     19709     19714     19716     19718
     19709     19714     19716     19719     19710     19709     19711     19712
     19710     19709     19711     19713     19710     19709     19711     19714
     19710     19709     19714     19711     19710     19709     19714     19715
     19710     19709     19714     19716     19711     19709     19714     19715
     19711     19709     19714     19716     19711     19714     19716     19717
     19711     19714     19716     19718     19711     19714     19716     19719
     19712     19711     19709     19714     19712     19711     19714     19715
     19712     19711     19714     19716     19713     19711     19709     19714
     19713     19711     19714     19715     19713     19711     19714     19716
     19714     19716     19719     19720     19714     19716     19719     19721
     19714     19716     19719     19722     19715     19714     19716     19717
     19715     19714     19716     19718     19715     19714     19716     19719
     19716     19719     19722     19723     19716     19719     19722     19724
     19716     19719     19722     19725     19717     19716     19719     19720
     19717     19716     19719     19721     19717     19716     19719     19722
     19718     19716     19719     19720     19718     19716     19719     19721
     19718     19716     19719     19722     19719     19722     19725     19726
     19719     19722     19725     19727     19719     19722     19725     19728
     19720     19719     19722     19723     19720     19719     19722     19724
     19720     19719     19722     19725     19721     19719     19722     19723
     19721     19719     19722     19724     19721     19719     19722     19725
     19722     19725     19728     19729     19722     19725     19728     19730
     19722     19725     19728     19731     19723     19722     19725     19726
     19723     19722     19725     19727     19723     19722     19725     19728
     19724     19722     19725     19726     19724     19722     19725     19727
     19724     19722     19725     19728     19725     19728     19731     19732
     19725     19728     19731     19733     19725     19728     19731     19734
     19726     19725     19728     19729     19726     19725     19728     19730
     19726     19725     19728     19731     19727     19725     19728     19729
     19727     19725     19728     19730     19727     19725     19728     19731
     19729     19728     19731     19732     19729     19728     19731     19733
     19729     19728     19731     19734     19730     19728     19731     19732
     19730     19728     19731     19733     19730     19728     19731     19734
     19735     19738     19741     19742     19735     19738     19741     19743
     19735     19738     19741     19744     19736     19735     19738     19739
     19736     19735     19738     19740     19736     19735     19738     19741
     19737     19735     19738     19739     19737     19735     19738     19740
     19737     19735     19738     19741     19738     19741     19744     19745
     19738     19741     19744     19746     19738     19741     19744     19747
     19739     19738     19741     19742     19739     19738     19741     19743
     19739     19738     19741     19744     19740     19738     19741     19742
     19740     19738     19741     19743     19740     19738     19741     19744
     19741     19744     19747     19748     19741     19744     19747     19749
     19741     19744     19747     19750     19742     19741     19744     19745
     19742     19741     19744     19746     19742     19741     19744     19747
     19743     19741     19744     19745     19743     19741     19744     19746
     19743     19741     19744     19747     19744     19747     19750     19751
     19744     19747     19750     19752     19744     19747     19750     19753
     19745     19744     19747     19748     19745     19744     19747     19749
     19745     19744     19747     19750     19746     19744     19747     19748
     19746     19744     19747     19749     19746     19744     19747     19750
     19747     19750     19753     19754     19747     19750     19753     19755
     19747     19750     19753     19756     19748     19747     19750     19751
     19748     19747     19750     19752     19748     19747     19750     19753
     19749     19747     19750     19751     19749     19747     19750     19752
     19749     19747     19750     19753     19750     19753     19756     19757
     19750     19753     19756     19758     19750     19753     19756     19759
     19751     19750     19753     19754     19751     19750     19753     19755
     19751     19750     19753     19756     19752     19750     19753     19754
     19752     19750     19753     19755     19752     19750     19753     19756
     19753     19756     19759     19760     19753     19756     19759     19761
     19753     19756     19759     19762     19754     19753     19756     19757
     19754     19753     19756     19758     19754     19753     19756     19759
     19755     19753     19756     19757     19755     19753     19756     19758
     19755     19753     19756     19759     19756     19759     19762     19763
     19756     19759     19762     19764     19756     19759     19762     19765
     19757     19756     19759     19760     19757     19756     19759     19761
     19757     19756     19759     19762     19758     19756     19759     19760
     19758     19756     19759     19761     19758     19756     19759     19762
     19759     19762     19765     19766     19759     19762     19765     19767
     19759     19762     19765     19768     19760     19759     19762     19763
     19760     19759     19762     19764     19760     19759     19762     19765
     19761     19759     19762     19763     19761     19759     19762     19764
     19761     19759     19762     19765     19762     19765     19768     19769
     19762     19765     19768     19770     19762     19765     19768     19771
     19763     19762     19765     19766     19763     19762     19765     19767
     19763     19762     19765     19768     19764     19762     19765     19766
     19764     19762     19765     19767     19764     19762     19765     19768
     19765     19768     19771     19772     19765     19768     19771     19773
     19765     19768     19771     19774     19766     19765     19768     19769
     19766     19765     19768     19770     19766     19765     19768     19771
     19767     19765     19768     19769     19767     19765     19768     19770
     19767     19765     19768     19771     19768     19771     19774     19775
     19768     19771     19774     19776     19768     19771     19774     19777
     19769     19768     19771     19772     19769     19768     19771     19773
     19769     19768     19771     19774     19770     19768     19771     19772
     19770     19768     19771     19773     19770     19768     19771     19774
     19772     19771     19774     19775     19772     19771     19774     19776
     19772     19771     19774     19777     19773     19771     19774     19775
     19773     19771     19774     19776     19773     19771     19774     19777
     19778     19782     19785     19786     19778     19782     19785     19787
     19778     19782     19785     19792     19779     19778     19782     19783
     19779     19778     19782     19784     19779     19778     19782     19785
     19780     19778     19782     19783     19780     19778     19782     19784
     19780     19778     19782     19785     19781     19778     19782     19783
     19781     19778     19782     19784     19781     19778     19782     19785
     19782     19785     19792     19788     19783     19782     19785     19786
     19783     19782     19785     19787     19783     19782     19785     19792
     19784     19782     19785     19786     19784     19782     19785     19787
     19784     19782     19785     19792     19785     19792     19788     19789
     19785     19792     19788     19790     19785     19792     19788     19791
     19786     19785     19792     19788     19787     19785     19792     19788
     19788     19791     19793     19794     19788     19791     19793     19795
     19788     19791     19793     19796     19789     19788     19791     19793
     19790     19788     19791     19793     19791     19793     19796     19797
     19791     19793     19796     19798     19791     19793     19796     19804
     19792     19788     19791     19793     19793     19796     19798     19799
     19793     19796     19804     19805     19793     19796     19804     19806
     19793     19796     19804     19807     19794     19793     19796     19797
     19794     19793     19796     19798     19794     19793     19796     19804
     19795     19793     19796     19797     19795     19793     19796     19798
     19795     19793     19796     19804     19796     19798     19799     19800
     19796     19798     19799     19801     19796     19804     19807     19808
     19797     19796     19798     19799     19797     19796     19804     19805
     19797     19796     19804     19806     19797     19796     19804     19807
     19798     19796     19804     19805     19798     19796     19804     19806
     19798     19796     19804     19807     19798     19799     19801     19802
     19798     19799     19801     19803     19798     19799     19801     19813
     19799     19798     19796     19804     19799     19801     19813     19814
     19799     19801     19813     19815     19799     19801     19813     19816
     19800     19799     19801     19802     19800     19799     19801     19803
     19800     19799     19801     19813     19801     19813     19816     19817
     19801     19813     19816     19818     19801     19813     19816     19819
     19802     19801     19813     19814     19802     19801     19813     19815
     19802     19801     19813     19816     19803     19801     19813     19814
     19803     19801     19813     19815     19803     19801     19813     19816
     19804     19807     19808     19809     19804     19807     19808     19810
     19805     19804     19807     19808     19806     19804     19807     19808
     19807     19808     19810     19811     19807     19808     19810     19812
     19807     19808     19810     19854     19808     19810     19854     19855
     19808     19810     19854     19856     19808     19810     19854     19857
     19809     19808     19810     19811     19809     19808     19810     19812
     19809     19808     19810     19854     19810     19854     19857     19858
     19810     19854     19857     19859     19810     19854     19857     19860
     19811     19810     19854     19855     19811     19810     19854     19856
     19811     19810     19854     19857     19812     19810     19854     19855
     19812     19810     19854     19856     19812     19810     19854     19857
     19813     19816     19819     19820     19813     19816     19819     19821
     19813     19816     19819     19822     19814     19813     19816     19817
     19814     19813     19816     19818     19814     19813     19816     19819
     19815     19813     19816     19817     19815     19813     19816     19818
     19815     19813     19816     19819     19816     19819     19822     19823
     19816     19819     19822     19824     19816     19819     19822     19825
     19817     19816     19819     19820     19817     19816     19819     19821
     19817     19816     19819     19822     19818     19816     19819     19820
     19818     19816     19819     19821     19818     19816     19819     19822
     19819     19822     19825     19826     19819     19822     19825     19827
     19819     19822     19825     19828     19820     19819     19822     19823
     19820     19819     19822     19824     19820     19819     19822     19825
     19821     19819     19822     19823     19821     19819     19822     19824
     19821     19819     19822     19825     19822     19825     19828     19829
     19822     19825     19828     19830     19822     19825     19828     19831
     19823     19822     19825     19826     19823     19822     19825     19827
     19823     19822     19825     19828     19824     19822     19825     19826
     19824     19822     19825     19827     19824     19822     19825     19828
     19825     19828     19831     19832     19825     19828     19831     19833
     19826     19825     19828     19829     19826     19825     19828     19830
     19826     19825     19828     19831     19827     19825     19828     19829
     19827     19825     19828     19830     19827     19825     19828     19831
     19828     19831     19833     19834     19828     19831     19833     19835
     19829     19828     19831     19832     19829     19828     19831     19833
     19830     19828     19831     19832     19830     19828     19831     19833
     19831     19833     19835     19836     19831     19833     19835     19837
     19831     19833     19835     19838     19832     19831     19833     19834
     19832     19831     19833     19835     19833     19835     19838     19839
     19833     19835     19838     19840     19833     19835     19838     19841
     19834     19833     19835     19836     19834     19833     19835     19837
     19834     19833     19835     19838     19835     19838     19841     19842
     19835     19838     19841     19843     19835     19838     19841     19844
     19836     19835     19838     19839     19836     19835     19838     19840
     19836     19835     19838     19841     19837     19835     19838     19839
     19837     19835     19838     19840     19837     19835     19838     19841
     19838     19841     19844     19845     19838     19841     19844     19846
     19838     19841     19844     19847     19839     19838     19841     19842
     19839     19838     19841     19843     19839     19838     19841     19844
     19840     19838     19841     19842     19840     19838     19841     19843
     19840     19838     19841     19844     19841     19844     19847     19848
     19841     19844     19847     19849     19841     19844     19847     19850
     19842     19841     19844     19845     19842     19841     19844     19846
     19842     19841     19844     19847     19843     19841     19844     19845
     19843     19841     19844     19846     19843     19841     19844     19847
     19844     19847     19850     19851     19844     19847     19850     19852
     19844     19847     19850     19853     19845     19844     19847     19848
     19845     19844     19847     19849     19845     19844     19847     19850
     19846     19844     19847     19848     19846     19844     19847     19849
     19846     19844     19847     19850     19848     19847     19850     19851
     19848     19847     19850     19852     19848     19847     19850     19853
     19849     19847     19850     19851     19849     19847     19850     19852
     19849     19847     19850     19853     19854     19857     19860     19861
     19854     19857     19860     19862     19854     19857     19860     19863
     19855     19854     19857     19858     19855     19854     19857     19859
     19855     19854     19857     19860     19856     19854     19857     19858
     19856     19854     19857     19859     19856     19854     19857     19860
     19857     19860     19863     19864     19857     19860     19863     19865
     19857     19860     19863     19866     19858     19857     19860     19861
     19858     19857     19860     19862     19858     19857     19860     19863
     19859     19857     19860     19861     19859     19857     19860     19862
     19859     19857     19860     19863     19860     19863     19866     19867
     19860     19863     19866     19868     19860     19863     19866     19869
     19861     19860     19863     19864     19861     19860     19863     19865
     19861     19860     19863     19866     19862     19860     19863     19864
     19862     19860     19863     19865     19862     19860     19863     19866
     19863     19866     19869     19870     19863     19866     19869     19871
     19863     19866     19869     19872     19864     19863     19866     19867
     19864     19863     19866     19868     19864     19863     19866     19869
     19865     19863     19866     19867     19865     19863     19866     19868
     19865     19863     19866     19869     19866     19869     19872     19873
     19866     19869     19872     19874     19867     19866     19869     19870
     19867     19866     19869     19871     19867     19866     19869     19872
     19868     19866     19869     19870     19868     19866     19869     19871
     19868     19866     19869     19872     19869     19872     19874     19875
     19869     19872     19874     19876     19870     19869     19872     19873
     19870     19869     19872     19874     19871     19869     19872     19873
     19871     19869     19872     19874     19872     19874     19876     19877
     19872     19874     19876     19878     19872     19874     19876     19879
     19873     19872     19874     19875     19873     19872     19874     19876
     19874     19876     19879     19880     19874     19876     19879     19881
     19874     19876     19879     19882     19875     19874     19876     19877
     19875     19874     19876     19878     19875     19874     19876     19879
     19876     19879     19882     19883     19876     19879     19882     19884
     19876     19879     19882     19885     19877     19876     19879     19880
     19877     19876     19879     19881     19877     19876     19879     19882
     19878     19876     19879     19880     19878     19876     19879     19881
     19878     19876     19879     19882     19879     19882     19885     19886
     19879     19882     19885     19887     19879     19882     19885     19888
     19880     19879     19882     19883     19880     19879     19882     19884
     19880     19879     19882     19885     19881     19879     19882     19883
     19881     19879     19882     19884     19881     19879     19882     19885
     19882     19885     19888     19889     19882     19885     19888     19890
     19882     19885     19888     19891     19883     19882     19885     19886
     19883     19882     19885     19887     19883     19882     19885     19888
     19884     19882     19885     19886     19884     19882     19885     19887
     19884     19882     19885     19888     19885     19888     19891     19892
     19885     19888     19891     19893     19885     19888     19891     19894
     19886     19885     19888     19889     19886     19885     19888     19890
     19886     19885     19888     19891     19887     19885     19888     19889
     19887     19885     19888     19890     19887     19885     19888     19891
     19888     19891     19894     19895     19888     19891     19894     19896
     19888     19891     19894     19897     19889     19888     19891     19892
     19889     19888     19891     19893     19889     19888     19891     19894
     19890     19888     19891     19892     19890     19888     19891     19893
     19890     19888     19891     19894     19891     19894     19897     19898
     19891     19894     19897     19899     19891     19894     19897     19900
     19892     19891     19894     19895     19892     19891     19894     19896
     19892     19891     19894     19897     19893     19891     19894     19895
     19893     19891     19894     19896     19893     19891     19894     19897
     19895     19894     19897     19898     19895     19894     19897     19899
     19895     19894     19897     19900     19896     19894     19897     19898
     19896     19894     19897     19899     19896     19894     19897     19900
     19901     19905     19908     19909     19901     19905     19908     19910
     19901     19905     19908     19915     19902     19901     19905     19906
     19902     19901     19905     19907     19902     19901     19905     19908
     19903     19901     19905     19906     19903     19901     19905     19907
     19903     19901     19905     19908     19904     19901     19905     19906
     19904     19901     19905     19907     19904     19901     19905     19908
     19905     19908     19915     19911     19906     19905     19908     19909
     19906     19905     19908     19910     19906     19905     19908     19915
     19907     19905     19908     19909     19907     19905     19908     19910
     19907     19905     19908     19915     19908     19915     19911     19912
     19908     19915     19911     19913     19908     19915     19911     19914
     19909     19908     19915     19911     19910     19908     19915     19911
     19911     19914     19916     19917     19911     19914     19916     19918
     19911     19914     19916     19919     19912     19911     19914     19916
     19913     19911     19914     19916     19914     19916     19919     19920
     19914     19916     19919     19921     19914     19916     19919     19927
     19915     19911     19914     19916     19916     19919     19921     19922
     19916     19919     19927     19928     19916     19919     19927     19929
     19916     19919     19927     19930     19917     19916     19919     19920
     19917     19916     19919     19921     19917     19916     19919     19927
     19918     19916     19919     19920     19918     19916     19919     19921
     19918     19916     19919     19927     19919     19921     19922     19923
     19919     19921     19922     19924     19919     19927     19930     19931
     19920     19919     19921     19922     19920     19919     19927     19928
     19920     19919     19927     19929     19920     19919     19927     19930
     19921     19919     19927     19928     19921     19919     19927     19929
     19921     19919     19927     19930     19921     19922     19924     19925
     19921     19922     19924     19926     19921     19922     19924     19936
     19922     19921     19919     19927     19922     19924     19936     19937
     19922     19924     19936     19938     19922     19924     19936     19939
     19923     19922     19924     19925     19923     19922     19924     19926
     19923     19922     19924     19936     19924     19936     19939     19940
     19924     19936     19939     19941     19924     19936     19939     19942
     19925     19924     19936     19937     19925     19924     19936     19938
     19925     19924     19936     19939     19926     19924     19936     19937
     19926     19924     19936     19938     19926     19924     19936     19939
     19927     19930     19931     19932     19927     19930     19931     19933
     19928     19927     19930     19931     19929     19927     19930     19931
     19930     19931     19933     19934     19930     19931     19933     19935
     19930     19931     19933     19980     19931     19933     19980     19981
     19931     19933     19980     19982     19931     19933     19980     19983
     19932     19931     19933     19934     19932     19931     19933     19935
     19932     19931     19933     19980     19933     19980     19983     19984
     19933     19980     19983     19985     19933     19980     19983     19986
     19934     19933     19980     19981     19934     19933     19980     19982
     19934     19933     19980     19983     19935     19933     19980     19981
     19935     19933     19980     19982     19935     19933     19980     19983
     19936     19939     19942     19943     19936     19939     19942     19944
     19936     19939     19942     19945     19937     19936     19939     19940
     19937     19936     19939     19941     19937     19936     19939     19942
     19938     19936     19939     19940     19938     19936     19939     19941
     19938     19936     19939     19942     19939     19942     19945     19946
     19939     19942     19945     19947     19939     19942     19945     19948
     19940     19939     19942     19943     19940     19939     19942     19944
     19940     19939     19942     19945     19941     19939     19942     19943
     19941     19939     19942     19944     19941     19939     19942     19945
     19942     19945     19948     19949     19942     19945     19948     19950
     19942     19945     19948     19951     19943     19942     19945     19946
     19943     19942     19945     19947     19943     19942     19945     19948
     19944     19942     19945     19946     19944     19942     19945     19947
     19944     19942     19945     19948     19945     19948     19951     19952
     19945     19948     19951     19953     19945     19948     19951     19954
     19946     19945     19948     19949     19946     19945     19948     19950
     19946     19945     19948     19951     19947     19945     19948     19949
     19947     19945     19948     19950     19947     19945     19948     19951
     19948     19951     19954     19955     19948     19951     19954     19956
     19948     19951     19954     19959     19949     19948     19951     19952
     19949     19948     19951     19953     19949     19948     19951     19954
     19950     19948     19951     19952     19950     19948     19951     19953
     19950     19948     19951     19954     19951     19954     19956     19957
     19951     19954     19956     19958     19951     19954     19956     19959
     19951     19954     19959     19956     19951     19954     19959     19960
     19951     19954     19959     19961     19952     19951     19954     19955
     19952     19951     19954     19956     19952     19951     19954     19959
     19953     19951     19954     19955     19953     19951     19954     19956
     19953     19951     19954     19959     19954     19956     19959     19960
     19954     19956     19959     19961     19954     19959     19956     19957
     19954     19959     19956     19958     19954     19959     19961     19962
     19954     19959     19961     19963     19954     19959     19961     19964
     19955     19954     19956     19957     19955     19954     19956     19958
     19955     19954     19956     19959     19955     19954     19959     19956
     19955     19954     19959     19960     19955     19954     19959     19961
     19956     19954     19959     19960     19956     19954     19959     19961
     19956     19959     19961     19962     19956     19959     19961     19963
     19956     19959     19961     19964     19957     19956     19954     19959
     19957     19956     19959     19960     19957     19956     19959     19961
     19958     19956     19954     19959     19958     19956     19959     19960
     19958     19956     19959     19961     19959     19961     19964     19965
     19959     19961     19964     19966     19959     19961     19964     19967
     19960     19959     19961     19962     19960     19959     19961     19963
     19960     19959     19961     19964     19961     19964     19967     19968
     19961     19964     19967     19969     19961     19964     19967     19970
     19962     19961     19964     19965     19962     19961     19964     19966
     19962     19961     19964     19967     19963     19961     19964     19965
     19963     19961     19964     19966     19963     19961     19964     19967
     19964     19967     19970     19971     19964     19967     19970     19972
     19964     19967     19970     19973     19965     19964     19967     19968
     19965     19964     19967     19969     19965     19964     19967     19970
     19966     19964     19967     19968     19966     19964     19967     19969
     19966     19964     19967     19970     19967     19970     19973     19974
     19967     19970     19973     19975     19967     19970     19973     19976
     19968     19967     19970     19971     19968     19967     19970     19972
     19968     19967     19970     19973     19969     19967     19970     19971
     19969     19967     19970     19972     19969     19967     19970     19973
     19970     19973     19976     19977     19970     19973     19976     19978
     19970     19973     19976     19979     19971     19970     19973     19974
     19971     19970     19973     19975     19971     19970     19973     19976
     19972     19970     19973     19974     19972     19970     19973     19975
     19972     19970     19973     19976     19974     19973     19976     19977
     19974     19973     19976     19978     19974     19973     19976     19979
     19975     19973     19976     19977     19975     19973     19976     19978
     19975     19973     19976     19979     19980     19983     19986     19987
     19980     19983     19986     19988     19980     19983     19986     19989
     19981     19980     19983     19984     19981     19980     19983     19985
     19981     19980     19983     19986     19982     19980     19983     19984
     19982     19980     19983     19985     19982     19980     19983     19986
     19983     19986     19989     19990     19983     19986     19989     19991
     19983     19986     19989     19992     19984     19983     19986     19987
     19984     19983     19986     19988     19984     19983     19986     19989
     19985     19983     19986     19987     19985     19983     19986     19988
     19985     19983     19986     19989     19986     19989     19992     19993
     19986     19989     19992     19994     19986     19989     19992     19995
     19987     19986     19989     19990     19987     19986     19989     19991
     19987     19986     19989     19992     19988     19986     19989     19990
     19988     19986     19989     19991     19988     19986     19989     19992
     19989     19992     19995     19996     19989     19992     19995     19997
     19989     19992     19995     19998     19990     19989     19992     19993
     19990     19989     19992     19994     19990     19989     19992     19995
     19991     19989     19992     19993     19991     19989     19992     19994
     19991     19989     19992     19995     19992     19995     19998     19999
     19992     19995     19998     20000     19992     19995     19998     20001
     19993     19992     19995     19996     19993     19992     19995     19997
     19993     19992     19995     19998     19994     19992     19995     19996
     19994     19992     19995     19997     19994     19992     19995     19998
     19995     19998     20001     20002     19995     19998     20001     20003
     19995     19998     20001     20004     19996     19995     19998     19999
     19996     19995     19998     20000     19996     19995     19998     20001
     19997     19995     19998     19999     19997     19995     19998     20000
     19997     19995     19998     20001     19998     20001     20004     20005
     19998     20001     20004     20006     19998     20001     20004     20007
     19999     19998     20001     20002     19999     19998     20001     20003
     19999     19998     20001     20004     20000     19998     20001     20002
     20000     19998     20001     20003     20000     19998     20001     20004
     20001     20004     20007     20008     20001     20004     20007     20009
     20001     20004     20007     20010     20002     20001     20004     20005
     20002     20001     20004     20006     20002     20001     20004     20007
     20003     20001     20004     20005     20003     20001     20004     20006
     20003     20001     20004     20007     20004     20007     20010     20011
     20004     20007     20010     20012     20004     20007     20010     20013
     20005     20004     20007     20008     20005     20004     20007     20009
     20005     20004     20007     20010     20006     20004     20007     20008
     20006     20004     20007     20009     20006     20004     20007     20010
     20007     20010     20013     20014     20007     20010     20013     20015
     20007     20010     20013     20016     20008     20007     20010     20011
     20008     20007     20010     20012     20008     20007     20010     20013
     20009     20007     20010     20011     20009     20007     20010     20012
     20009     20007     20010     20013     20010     20013     20016     20017
     20010     20013     20016     20018     20010     20013     20016     20019
     20011     20010     20013     20014     20011     20010     20013     20015
     20011     20010     20013     20016     20012     20010     20013     20014
     20012     20010     20013     20015     20012     20010     20013     20016
     20013     20016     20019     20020     20013     20016     20019     20021
     20013     20016     20019     20022     20014     20013     20016     20017
     20014     20013     20016     20018     20014     20013     20016     20019
     20015     20013     20016     20017     20015     20013     20016     20018
     20015     20013     20016     20019     20017     20016     20019     20020
     20017     20016     20019     20021     20017     20016     20019     20022
     20018     20016     20019     20020     20018     20016     20019     20021
     20018     20016     20019     20022     20023     20027     20030     20031
     20023     20027     20030     20032     20023     20027     20030     20037
     20024     20023     20027     20028     20024     20023     20027     20029
     20024     20023     20027     20030     20025     20023     20027     20028
     20025     20023     20027     20029     20025     20023     20027     20030
     20026     20023     20027     20028     20026     20023     20027     20029
     20026     20023     20027     20030     20027     20030     20037     20033
     20028     20027     20030     20031     20028     20027     20030     20032
     20028     20027     20030     20037     20029     20027     20030     20031
     20029     20027     20030     20032     20029     20027     20030     20037
     20030     20037     20033     20034     20030     20037     20033     20035
     20030     20037     20033     20036     20031     20030     20037     20033
     20032     20030     20037     20033     20033     20036     20038     20039
     20033     20036     20038     20040     20033     20036     20038     20041
     20034     20033     20036     20038     20035     20033     20036     20038
     20036     20038     20041     20042     20036     20038     20041     20043
     20036     20038     20041     20049     20037     20033     20036     20038
     20038     20041     20043     20044     20038     20041     20049     20050
     20038     20041     20049     20051     20038     20041     20049     20052
     20039     20038     20041     20042     20039     20038     20041     20043
     20039     20038     20041     20049     20040     20038     20041     20042
     20040     20038     20041     20043     20040     20038     20041     20049
     20041     20043     20044     20045     20041     20043     20044     20046
     20041     20049     20052     20053     20042     20041     20043     20044
     20042     20041     20049     20050     20042     20041     20049     20051
     20042     20041     20049     20052     20043     20041     20049     20050
     20043     20041     20049     20051     20043     20041     20049     20052
     20043     20044     20046     20047     20043     20044     20046     20048
     20043     20044     20046     20058     20044     20043     20041     20049
     20044     20046     20058     20059     20044     20046     20058     20060
     20044     20046     20058     20061     20045     20044     20046     20047
     20045     20044     20046     20048     20045     20044     20046     20058
     20046     20058     20061     20062     20046     20058     20061     20063
     20046     20058     20061     20064     20047     20046     20058     20059
     20047     20046     20058     20060     20047     20046     20058     20061
     20048     20046     20058     20059     20048     20046     20058     20060
     20048     20046     20058     20061     20049     20052     20053     20054
     20049     20052     20053     20055     20050     20049     20052     20053
     20051     20049     20052     20053     20052     20053     20055     20056
     20052     20053     20055     20057     20052     20053     20055     20102
     20053     20055     20102     20103     20053     20055     20102     20104
     20053     20055     20102     20105     20054     20053     20055     20056
     20054     20053     20055     20057     20054     20053     20055     20102
     20055     20102     20105     20106     20055     20102     20105     20107
     20055     20102     20105     20108     20056     20055     20102     20103
     20056     20055     20102     20104     20056     20055     20102     20105
     20057     20055     20102     20103     20057     20055     20102     20104
     20057     20055     20102     20105     20058     20061     20064     20065
     20058     20061     20064     20066     20058     20061     20064     20067
     20059     20058     20061     20062     20059     20058     20061     20063
     20059     20058     20061     20064     20060     20058     20061     20062
     20060     20058     20061     20063     20060     20058     20061     20064
     20061     20064     20067     20068     20061     20064     20067     20069
     20061     20064     20067     20070     20062     20061     20064     20065
     20062     20061     20064     20066     20062     20061     20064     20067
     20063     20061     20064     20065     20063     20061     20064     20066
     20063     20061     20064     20067     20064     20067     20070     20071
     20064     20067     20070     20072     20064     20067     20070     20073
     20065     20064     20067     20068     20065     20064     20067     20069
     20065     20064     20067     20070     20066     20064     20067     20068
     20066     20064     20067     20069     20066     20064     20067     20070
     20067     20070     20073     20074     20067     20070     20073     20075
     20067     20070     20073     20076     20068     20067     20070     20071
     20068     20067     20070     20072     20068     20067     20070     20073
     20069     20067     20070     20071     20069     20067     20070     20072
     20069     20067     20070     20073     20070     20073     20076     20077
     20070     20073     20076     20078     20070     20073     20076     20081
     20071     20070     20073     20074     20071     20070     20073     20075
     20071     20070     20073     20076     20072     20070     20073     20074
     20072     20070     20073     20075     20072     20070     20073     20076
     20073     20076     20078     20079     20073     20076     20078     20080
     20073     20076     20078     20081     20073     20076     20081     20078
     20073     20076     20081     20082     20073     20076     20081     20083
     20074     20073     20076     20077     20074     20073     20076     20078
     20074     20073     20076     20081     20075     20073     20076     20077
     20075     20073     20076     20078     20075     20073     20076     20081
     20076     20078     20081     20082     20076     20078     20081     20083
     20076     20081     20078     20079     20076     20081     20078     20080
     20076     20081     20083     20084     20076     20081     20083     20085
     20076     20081     20083     20086     20077     20076     20078     20079
     20077     20076     20078     20080     20077     20076     20078     20081
     20077     20076     20081     20078     20077     20076     20081     20082
     20077     20076     20081     20083     20078     20076     20081     20082
     20078     20076     20081     20083     20078     20081     20083     20084
     20078     20081     20083     20085     20078     20081     20083     20086
     20079     20078     20076     20081     20079     20078     20081     20082
     20079     20078     20081     20083     20080     20078     20076     20081
     20080     20078     20081     20082     20080     20078     20081     20083
     20081     20083     20086     20087     20081     20083     20086     20088
     20081     20083     20086     20089     20082     20081     20083     20084
     20082     20081     20083     20085     20082     20081     20083     20086
     20083     20086     20089     20090     20083     20086     20089     20091
     20083     20086     20089     20092     20084     20083     20086     20087
     20084     20083     20086     20088     20084     20083     20086     20089
     20085     20083     20086     20087     20085     20083     20086     20088
     20085     20083     20086     20089     20086     20089     20092     20093
     20086     20089     20092     20094     20086     20089     20092     20095
     20087     20086     20089     20090     20087     20086     20089     20091
     20087     20086     20089     20092     20088     20086     20089     20090
     20088     20086     20089     20091     20088     20086     20089     20092
     20089     20092     20095     20096     20089     20092     20095     20097
     20089     20092     20095     20098     20090     20089     20092     20093
     20090     20089     20092     20094     20090     20089     20092     20095
     20091     20089     20092     20093     20091     20089     20092     20094
     20091     20089     20092     20095     20092     20095     20098     20099
     20092     20095     20098     20100     20092     20095     20098     20101
     20093     20092     20095     20096     20093     20092     20095     20097
     20093     20092     20095     20098     20094     20092     20095     20096
     20094     20092     20095     20097     20094     20092     20095     20098
     20096     20095     20098     20099     20096     20095     20098     20100
     20096     20095     20098     20101     20097     20095     20098     20099
     20097     20095     20098     20100     20097     20095     20098     20101
     20102     20105     20108     20109     20102     20105     20108     20110
     20102     20105     20108     20111     20103     20102     20105     20106
     20103     20102     20105     20107     20103     20102     20105     20108
     20104     20102     20105     20106     20104     20102     20105     20107
     20104     20102     20105     20108     20105     20108     20111     20112
     20105     20108     20111     20113     20105     20108     20111     20114
     20106     20105     20108     20109     20106     20105     20108     20110
     20106     20105     20108     20111     20107     20105     20108     20109
     20107     20105     20108     20110     20107     20105     20108     20111
     20108     20111     20114     20115     20108     20111     20114     20116
     20108     20111     20114     20117     20109     20108     20111     20112
     20109     20108     20111     20113     20109     20108     20111     20114
     20110     20108     20111     20112     20110     20108     20111     20113
     20110     20108     20111     20114     20111     20114     20117     20118
     20111     20114     20117     20119     20111     20114     20117     20120
     20112     20111     20114     20115     20112     20111     20114     20116
     20112     20111     20114     20117     20113     20111     20114     20115
     20113     20111     20114     20116     20113     20111     20114     20117
     20114     20117     20120     20121     20114     20117     20120     20122
     20114     20117     20120     20123     20115     20114     20117     20118
     20115     20114     20117     20119     20115     20114     20117     20120
     20116     20114     20117     20118     20116     20114     20117     20119
     20116     20114     20117     20120     20117     20120     20123     20124
     20117     20120     20123     20125     20117     20120     20123     20126
     20118     20117     20120     20121     20118     20117     20120     20122
     20118     20117     20120     20123     20119     20117     20120     20121
     20119     20117     20120     20122     20119     20117     20120     20123
     20120     20123     20126     20127     20120     20123     20126     20128
     20120     20123     20126     20129     20121     20120     20123     20124
     20121     20120     20123     20125     20121     20120     20123     20126
     20122     20120     20123     20124     20122     20120     20123     20125
     20122     20120     20123     20126     20123     20126     20129     20130
     20123     20126     20129     20131     20123     20126     20129     20132
     20124     20123     20126     20127     20124     20123     20126     20128
     20124     20123     20126     20129     20125     20123     20126     20127
     20125     20123     20126     20128     20125     20123     20126     20129
     20126     20129     20132     20133     20126     20129     20132     20134
     20126     20129     20132     20135     20127     20126     20129     20130
     20127     20126     20129     20131     20127     20126     20129     20132
     20128     20126     20129     20130     20128     20126     20129     20131
     20128     20126     20129     20132     20129     20132     20135     20136
     20129     20132     20135     20137     20129     20132     20135     20138
     20130     20129     20132     20133     20130     20129     20132     20134
     20130     20129     20132     20135     20131     20129     20132     20133
     20131     20129     20132     20134     20131     20129     20132     20135
     20132     20135     20138     20139     20132     20135     20138     20140
     20132     20135     20138     20141     20133     20132     20135     20136
     20133     20132     20135     20137     20133     20132     20135     20138
     20134     20132     20135     20136     20134     20132     20135     20137
     20134     20132     20135     20138     20136     20135     20138     20139
     20136     20135     20138     20140     20136     20135     20138     20141
     20137     20135     20138     20139     20137     20135     20138     20140
     20137     20135     20138     20141     20142     20147     20149     20150
     20142     20147     20151     20152     20142     20147     20151     20153
     20142     20147     20151     20158     20143     20142     20145     20146
     20143     20142     20147     20148     20143     20142     20147     20149
     20143     20142     20147     20151     20144     20142     20145     20146
     20144     20142     20147     20148     20144     20142     20147     20149
     20144     20142     20147     20151     20145     20142     20147     20148
     20145     20142     20147     20149     20145     20142     20147     20151
     20146     20145     20142     20147     20147     20151     20158     20154
     20148     20147     20149     20150     20148     20147     20151     20152
     20148     20147     20151     20153     20148     20147     20151     20158
     20149     20147     20151     20152     20149     20147     20151     20153
     20149     20147     20151     20158     20150     20149     20147     20151
     20151     20158     20154     20155     20151     20158     20154     20156
     20151     20158     20154     20157     20152     20151     20158     20154
     20153     20151     20158     20154     20154     20157     20159     20160
     20154     20157     20159     20161     20154     20157     20159     20162
     20155     20154     20157     20159     20156     20154     20157     20159
     20157     20159     20162     20163     20157     20159     20162     20164
     20157     20159     20162     20170     20158     20154     20157     20159
     20159     20162     20164     20165     20159     20162     20170     20171
     20159     20162     20170     20172     20159     20162     20170     20173
     20160     20159     20162     20163     20160     20159     20162     20164
     20160     20159     20162     20170     20161     20159     20162     20163
     20161     20159     20162     20164     20161     20159     20162     20170
     20162     20164     20165     20166     20162     20164     20165     20167
     20162     20170     20173     20174     20163     20162     20164     20165
     20163     20162     20170     20171     20163     20162     20170     20172
     20163     20162     20170     20173     20164     20162     20170     20171
     20164     20162     20170     20172     20164     20162     20170     20173
     20164     20165     20167     20168     20164     20165     20167     20169
     20164     20165     20167     20179     20165     20164     20162     20170
     20165     20167     20179     20180     20165     20167     20179     20181
     20165     20167     20179     20182     20166     20165     20167     20168
     20166     20165     20167     20169     20166     20165     20167     20179
     20167     20179     20182     20183     20167     20179     20182     20184
     20167     20179     20182     20185     20168     20167     20179     20180
     20168     20167     20179     20181     20168     20167     20179     20182
     20169     20167     20179     20180     20169     20167     20179     20181
     20169     20167     20179     20182     20170     20173     20174     20175
     20170     20173     20174     20176     20171     20170     20173     20174
     20172     20170     20173     20174     20173     20174     20176     20177
     20173     20174     20176     20178     20173     20174     20176     20220
     20174     20176     20220     20221     20174     20176     20220     20222
     20174     20176     20220     20223     20175     20174     20176     20177
     20175     20174     20176     20178     20175     20174     20176     20220
     20176     20220     20223     20224     20176     20220     20223     20225
     20176     20220     20223     20226     20177     20176     20220     20221
     20177     20176     20220     20222     20177     20176     20220     20223
     20178     20176     20220     20221     20178     20176     20220     20222
     20178     20176     20220     20223     20179     20182     20185     20186
     20179     20182     20185     20187     20179     20182     20185     20188
     20180     20179     20182     20183     20180     20179     20182     20184
     20180     20179     20182     20185     20181     20179     20182     20183
     20181     20179     20182     20184     20181     20179     20182     20185
     20182     20185     20188     20189     20182     20185     20188     20190
     20182     20185     20188     20191     20183     20182     20185     20186
     20183     20182     20185     20187     20183     20182     20185     20188
     20184     20182     20185     20186     20184     20182     20185     20187
     20184     20182     20185     20188     20185     20188     20191     20192
     20185     20188     20191     20193     20185     20188     20191     20194
     20186     20185     20188     20189     20186     20185     20188     20190
     20186     20185     20188     20191     20187     20185     20188     20189
     20187     20185     20188     20190     20187     20185     20188     20191
     20188     20191     20194     20195     20188     20191     20194     20196
     20188     20191     20194     20197     20189     20188     20191     20192
     20189     20188     20191     20193     20189     20188     20191     20194
     20190     20188     20191     20192     20190     20188     20191     20193
     20190     20188     20191     20194     20191     20194     20197     20198
     20191     20194     20197     20199     20192     20191     20194     20195
     20192     20191     20194     20196     20192     20191     20194     20197
     20193     20191     20194     20195     20193     20191     20194     20196
     20193     20191     20194     20197     20194     20197     20199     20200
     20194     20197     20199     20201     20195     20194     20197     20198
     20195     20194     20197     20199     20196     20194     20197     20198
     20196     20194     20197     20199     20197     20199     20201     20202
     20197     20199     20201     20203     20197     20199     20201     20204
     20198     20197     20199     20200     20198     20197     20199     20201
     20199     20201     20204     20205     20199     20201     20204     20206
     20199     20201     20204     20207     20200     20199     20201     20202
     20200     20199     20201     20203     20200     20199     20201     20204
     20201     20204     20207     20208     20201     20204     20207     20209
     20201     20204     20207     20210     20202     20201     20204     20205
     20202     20201     20204     20206     20202     20201     20204     20207
     20203     20201     20204     20205     20203     20201     20204     20206
     20203     20201     20204     20207     20204     20207     20210     20211
     20204     20207     20210     20212     20204     20207     20210     20213
     20205     20204     20207     20208     20205     20204     20207     20209
     20205     20204     20207     20210     20206     20204     20207     20208
     20206     20204     20207     20209     20206     20204     20207     20210
     20207     20210     20213     20214     20207     20210     20213     20215
     20207     20210     20213     20216     20208     20207     20210     20211
     20208     20207     20210     20212     20208     20207     20210     20213
     20209     20207     20210     20211     20209     20207     20210     20212
     20209     20207     20210     20213     20210     20213     20216     20217
     20210     20213     20216     20218     20210     20213     20216     20219
     20211     20210     20213     20214     20211     20210     20213     20215
     20211     20210     20213     20216     20212     20210     20213     20214
     20212     20210     20213     20215     20212     20210     20213     20216
     20214     20213     20216     20217     20214     20213     20216     20218
     20214     20213     20216     20219     20215     20213     20216     20217
     20215     20213     20216     20218     20215     20213     20216     20219
     20220     20223     20226     20227     20220     20223     20226     20228
     20220     20223     20226     20229     20221     20220     20223     20224
     20221     20220     20223     20225     20221     20220     20223     20226
     20222     20220     20223     20224     20222     20220     20223     20225
     20222     20220     20223     20226     20223     20226     20229     20230
     20223     20226     20229     20231     20223     20226     20229     20232
     20224     20223     20226     20227     20224     20223     20226     20228
     20224     20223     20226     20229     20225     20223     20226     20227
     20225     20223     20226     20228     20225     20223     20226     20229
     20226     20229     20232     20233     20226     20229     20232     20234
     20226     20229     20232     20235     20227     20226     20229     20230
     20227     20226     20229     20231     20227     20226     20229     20232
     20228     20226     20229     20230     20228     20226     20229     20231
     20228     20226     20229     20232     20229     20232     20235     20236
     20229     20232     20235     20237     20229     20232     20235     20238
     20230     20229     20232     20233     20230     20229     20232     20234
     20230     20229     20232     20235     20231     20229     20232     20233
     20231     20229     20232     20234     20231     20229     20232     20235
     20232     20235     20238     20239     20232     20235     20238     20240
     20232     20235     20238     20241     20233     20232     20235     20236
     20233     20232     20235     20237     20233     20232     20235     20238
     20234     20232     20235     20236     20234     20232     20235     20237
     20234     20232     20235     20238     20235     20238     20241     20242
     20235     20238     20241     20243     20235     20238     20241     20244
     20236     20235     20238     20239     20236     20235     20238     20240
     20236     20235     20238     20241     20237     20235     20238     20239
     20237     20235     20238     20240     20237     20235     20238     20241
     20238     20241     20244     20245     20238     20241     20244     20246
     20238     20241     20244     20247     20239     20238     20241     20242
     20239     20238     20241     20243     20239     20238     20241     20244
     20240     20238     20241     20242     20240     20238     20241     20243
     20240     20238     20241     20244     20241     20244     20247     20248
     20241     20244     20247     20249     20241     20244     20247     20250
     20242     20241     20244     20245     20242     20241     20244     20246
     20242     20241     20244     20247     20243     20241     20244     20245
     20243     20241     20244     20246     20243     20241     20244     20247
     20244     20247     20250     20251     20244     20247     20250     20252
     20244     20247     20250     20253     20245     20244     20247     20248
     20245     20244     20247     20249     20245     20244     20247     20250
     20246     20244     20247     20248     20246     20244     20247     20249
     20246     20244     20247     20250     20247     20250     20253     20254
     20247     20250     20253     20255     20247     20250     20253     20256
     20248     20247     20250     20251     20248     20247     20250     20252
     20248     20247     20250     20253     20249     20247     20250     20251
     20249     20247     20250     20252     20249     20247     20250     20253
     20250     20253     20256     20257     20250     20253     20256     20258
     20250     20253     20256     20259     20251     20250     20253     20254
     20251     20250     20253     20255     20251     20250     20253     20256
     20252     20250     20253     20254     20252     20250     20253     20255
     20252     20250     20253     20256     20253     20256     20259     20260
     20253     20256     20259     20261     20253     20256     20259     20262
     20254     20253     20256     20257     20254     20253     20256     20258
     20254     20253     20256     20259     20255     20253     20256     20257
     20255     20253     20256     20258     20255     20253     20256     20259
     20257     20256     20259     20260     20257     20256     20259     20261
     20257     20256     20259     20262     20258     20256     20259     20260
     20258     20256     20259     20261     20258     20256     20259     20262
     20263     20268     20270     20271     20263     20268     20272     20273
     20263     20268     20272     20274     20263     20268     20272     20279
     20264     20263     20266     20267     20264     20263     20268     20269
     20264     20263     20268     20270     20264     20263     20268     20272
     20265     20263     20266     20267     20265     20263     20268     20269
     20265     20263     20268     20270     20265     20263     20268     20272
     20266     20263     20268     20269     20266     20263     20268     20270
     20266     20263     20268     20272     20267     20266     20263     20268
     20268     20272     20279     20275     20269     20268     20270     20271
     20269     20268     20272     20273     20269     20268     20272     20274
     20269     20268     20272     20279     20270     20268     20272     20273
     20270     20268     20272     20274     20270     20268     20272     20279
     20271     20270     20268     20272     20272     20279     20275     20276
     20272     20279     20275     20277     20272     20279     20275     20278
     20273     20272     20279     20275     20274     20272     20279     20275
     20275     20278     20280     20281     20275     20278     20280     20282
     20275     20278     20280     20283     20276     20275     20278     20280
     20277     20275     20278     20280     20278     20280     20283     20284
     20278     20280     20283     20285     20278     20280     20283     20291
     20279     20275     20278     20280     20280     20283     20285     20286
     20280     20283     20291     20292     20280     20283     20291     20293
     20280     20283     20291     20294     20281     20280     20283     20284
     20281     20280     20283     20285     20281     20280     20283     20291
     20282     20280     20283     20284     20282     20280     20283     20285
     20282     20280     20283     20291     20283     20285     20286     20287
     20283     20285     20286     20288     20283     20291     20294     20295
     20284     20283     20285     20286     20284     20283     20291     20292
     20284     20283     20291     20293     20284     20283     20291     20294
     20285     20283     20291     20292     20285     20283     20291     20293
     20285     20283     20291     20294     20285     20286     20288     20289
     20285     20286     20288     20290     20285     20286     20288     20300
     20286     20285     20283     20291     20286     20288     20300     20301
     20286     20288     20300     20302     20286     20288     20300     20303
     20287     20286     20288     20289     20287     20286     20288     20290
     20287     20286     20288     20300     20288     20300     20303     20304
     20288     20300     20303     20305     20288     20300     20303     20306
     20289     20288     20300     20301     20289     20288     20300     20302
     20289     20288     20300     20303     20290     20288     20300     20301
     20290     20288     20300     20302     20290     20288     20300     20303
     20291     20294     20295     20296     20291     20294     20295     20297
     20292     20291     20294     20295     20293     20291     20294     20295
     20294     20295     20297     20298     20294     20295     20297     20299
     20294     20295     20297     20344     20295     20297     20344     20345
     20295     20297     20344     20346     20295     20297     20344     20347
     20296     20295     20297     20298     20296     20295     20297     20299
     20296     20295     20297     20344     20297     20344     20347     20348
     20297     20344     20347     20349     20297     20344     20347     20350
     20298     20297     20344     20345     20298     20297     20344     20346
     20298     20297     20344     20347     20299     20297     20344     20345
     20299     20297     20344     20346     20299     20297     20344     20347
     20300     20303     20306     20307     20300     20303     20306     20308
     20300     20303     20306     20309     20301     20300     20303     20304
     20301     20300     20303     20305     20301     20300     20303     20306
     20302     20300     20303     20304     20302     20300     20303     20305
     20302     20300     20303     20306     20303     20306     20309     20310
     20303     20306     20309     20311     20303     20306     20309     20312
     20304     20303     20306     20307     20304     20303     20306     20308
     20304     20303     20306     20309     20305     20303     20306     20307
     20305     20303     20306     20308     20305     20303     20306     20309
     20306     20309     20312     20313     20306     20309     20312     20314
     20306     20309     20312     20315     20307     20306     20309     20310
     20307     20306     20309     20311     20307     20306     20309     20312
     20308     20306     20309     20310     20308     20306     20309     20311
     20308     20306     20309     20312     20309     20312     20315     20316
     20309     20312     20315     20317     20309     20312     20315     20318
     20310     20309     20312     20313     20310     20309     20312     20314
     20310     20309     20312     20315     20311     20309     20312     20313
     20311     20309     20312     20314     20311     20309     20312     20315
     20312     20315     20318     20319     20312     20315     20318     20320
     20312     20315     20318     20323     20313     20312     20315     20316
     20313     20312     20315     20317     20313     20312     20315     20318
     20314     20312     20315     20316     20314     20312     20315     20317
     20314     20312     20315     20318     20315     20318     20320     20321
     20315     20318     20320     20322     20315     20318     20320     20323
     20315     20318     20323     20320     20315     20318     20323     20324
     20315     20318     20323     20325     20316     20315     20318     20319
     20316     20315     20318     20320     20316     20315     20318     20323
     20317     20315     20318     20319     20317     20315     20318     20320
     20317     20315     20318     20323     20318     20320     20323     20324
     20318     20320     20323     20325     20318     20323     20320     20321
     20318     20323     20320     20322     20318     20323     20325     20326
     20318     20323     20325     20327     20318     20323     20325     20328
     20319     20318     20320     20321     20319     20318     20320     20322
     20319     20318     20320     20323     20319     20318     20323     20320
     20319     20318     20323     20324     20319     20318     20323     20325
     20320     20318     20323     20324     20320     20318     20323     20325
     20320     20323     20325     20326     20320     20323     20325     20327
     20320     20323     20325     20328     20321     20320     20318     20323
     20321     20320     20323     20324     20321     20320     20323     20325
     20322     20320     20318     20323     20322     20320     20323     20324
     20322     20320     20323     20325     20323     20325     20328     20329
     20323     20325     20328     20330     20323     20325     20328     20331
     20324     20323     20325     20326     20324     20323     20325     20327
     20324     20323     20325     20328     20325     20328     20331     20332
     20325     20328     20331     20333     20325     20328     20331     20334
     20326     20325     20328     20329     20326     20325     20328     20330
     20326     20325     20328     20331     20327     20325     20328     20329
     20327     20325     20328     20330     20327     20325     20328     20331
     20328     20331     20334     20335     20328     20331     20334     20336
     20328     20331     20334     20337     20329     20328     20331     20332
     20329     20328     20331     20333     20329     20328     20331     20334
     20330     20328     20331     20332     20330     20328     20331     20333
     20330     20328     20331     20334     20331     20334     20337     20338
     20331     20334     20337     20339     20331     20334     20337     20340
     20332     20331     20334     20335     20332     20331     20334     20336
     20332     20331     20334     20337     20333     20331     20334     20335
     20333     20331     20334     20336     20333     20331     20334     20337
     20334     20337     20340     20341     20334     20337     20340     20342
     20334     20337     20340     20343     20335     20334     20337     20338
     20335     20334     20337     20339     20335     20334     20337     20340
     20336     20334     20337     20338     20336     20334     20337     20339
     20336     20334     20337     20340     20338     20337     20340     20341
     20338     20337     20340     20342     20338     20337     20340     20343
     20339     20337     20340     20341     20339     20337     20340     20342
     20339     20337     20340     20343     20344     20347     20350     20351
     20344     20347     20350     20352     20344     20347     20350     20353
     20345     20344     20347     20348     20345     20344     20347     20349
     20345     20344     20347     20350     20346     20344     20347     20348
     20346     20344     20347     20349     20346     20344     20347     20350
     20347     20350     20353     20354     20347     20350     20353     20355
     20347     20350     20353     20356     20348     20347     20350     20351
     20348     20347     20350     20352     20348     20347     20350     20353
     20349     20347     20350     20351     20349     20347     20350     20352
     20349     20347     20350     20353     20350     20353     20356     20357
     20350     20353     20356     20358     20350     20353     20356     20359
     20351     20350     20353     20354     20351     20350     20353     20355
     20351     20350     20353     20356     20352     20350     20353     20354
     20352     20350     20353     20355     20352     20350     20353     20356
     20353     20356     20359     20360     20353     20356     20359     20361
     20353     20356     20359     20362     20354     20353     20356     20357
     20354     20353     20356     20358     20354     20353     20356     20359
     20355     20353     20356     20357     20355     20353     20356     20358
     20355     20353     20356     20359     20356     20359     20362     20363
     20356     20359     20362     20364     20356     20359     20362     20365
     20357     20356     20359     20360     20357     20356     20359     20361
     20357     20356     20359     20362     20358     20356     20359     20360
     20358     20356     20359     20361     20358     20356     20359     20362
     20359     20362     20365     20366     20359     20362     20365     20367
     20359     20362     20365     20368     20360     20359     20362     20363
     20360     20359     20362     20364     20360     20359     20362     20365
     20361     20359     20362     20363     20361     20359     20362     20364
     20361     20359     20362     20365     20362     20365     20368     20369
     20362     20365     20368     20370     20362     20365     20368     20371
     20363     20362     20365     20366     20363     20362     20365     20367
     20363     20362     20365     20368     20364     20362     20365     20366
     20364     20362     20365     20367     20364     20362     20365     20368
     20365     20368     20371     20372     20365     20368     20371     20373
     20365     20368     20371     20374     20366     20365     20368     20369
     20366     20365     20368     20370     20366     20365     20368     20371
     20367     20365     20368     20369     20367     20365     20368     20370
     20367     20365     20368     20371     20368     20371     20374     20375
     20368     20371     20374     20376     20368     20371     20374     20377
     20369     20368     20371     20372     20369     20368     20371     20373
     20369     20368     20371     20374     20370     20368     20371     20372
     20370     20368     20371     20373     20370     20368     20371     20374
     20371     20374     20377     20378     20371     20374     20377     20379
     20371     20374     20377     20380     20372     20371     20374     20375
     20372     20371     20374     20376     20372     20371     20374     20377
     20373     20371     20374     20375     20373     20371     20374     20376
     20373     20371     20374     20377     20374     20377     20380     20381
     20374     20377     20380     20382     20374     20377     20380     20383
     20375     20374     20377     20378     20375     20374     20377     20379
     20375     20374     20377     20380     20376     20374     20377     20378
     20376     20374     20377     20379     20376     20374     20377     20380
     20377     20380     20383     20384     20377     20380     20383     20385
     20377     20380     20383     20386     20378     20377     20380     20381
     20378     20377     20380     20382     20378     20377     20380     20383
     20379     20377     20380     20381     20379     20377     20380     20382
     20379     20377     20380     20383     20381     20380     20383     20384
     20381     20380     20383     20385     20381     20380     20383     20386
     20382     20380     20383     20384     20382     20380     20383     20385
     20382     20380     20383     20386     20387     20391     20394     20395
     20387     20391     20394     20396     20387     20391     20394     20401
     20388     20387     20391     20392     20388     20387     20391     20393
     20388     20387     20391     20394     20389     20387     20391     20392
     20389     20387     20391     20393     20389     20387     20391     20394
     20390     20387     20391     20392     20390     20387     20391     20393
     20390     20387     20391     20394     20391     20394     20401     20397
     20392     20391     20394     20395     20392     20391     20394     20396
     20392     20391     20394     20401     20393     20391     20394     20395
     20393     20391     20394     20396     20393     20391     20394     20401
     20394     20401     20397     20398     20394     20401     20397     20399
     20394     20401     20397     20400     20395     20394     20401     20397
     20396     20394     20401     20397     20397     20400     20402     20403
     20397     20400     20402     20404     20397     20400     20402     20405
     20398     20397     20400     20402     20399     20397     20400     20402
     20400     20402     20405     20406     20400     20402     20405     20407
     20400     20402     20405     20413     20401     20397     20400     20402
     20402     20405     20407     20408     20402     20405     20413     20414
     20402     20405     20413     20415     20402     20405     20413     20416
     20403     20402     20405     20406     20403     20402     20405     20407
     20403     20402     20405     20413     20404     20402     20405     20406
     20404     20402     20405     20407     20404     20402     20405     20413
     20405     20407     20408     20409     20405     20407     20408     20410
     20405     20413     20416     20417     20406     20405     20407     20408
     20406     20405     20413     20414     20406     20405     20413     20415
     20406     20405     20413     20416     20407     20405     20413     20414
     20407     20405     20413     20415     20407     20405     20413     20416
     20407     20408     20410     20411     20407     20408     20410     20412
     20407     20408     20410     20422     20408     20407     20405     20413
     20408     20410     20422     20423     20408     20410     20422     20424
     20408     20410     20422     20425     20409     20408     20410     20411
     20409     20408     20410     20412     20409     20408     20410     20422
     20410     20422     20425     20426     20410     20422     20425     20427
     20410     20422     20425     20428     20411     20410     20422     20423
     20411     20410     20422     20424     20411     20410     20422     20425
     20412     20410     20422     20423     20412     20410     20422     20424
     20412     20410     20422     20425     20413     20416     20417     20418
     20413     20416     20417     20419     20414     20413     20416     20417
     20415     20413     20416     20417     20416     20417     20419     20420
     20416     20417     20419     20421     20416     20417     20419     20463
     20417     20419     20463     20464     20417     20419     20463     20465
     20417     20419     20463     20466     20418     20417     20419     20420
     20418     20417     20419     20421     20418     20417     20419     20463
     20419     20463     20466     20467     20419     20463     20466     20468
     20419     20463     20466     20469     20420     20419     20463     20464
     20420     20419     20463     20465     20420     20419     20463     20466
     20421     20419     20463     20464     20421     20419     20463     20465
     20421     20419     20463     20466     20422     20425     20428     20429
     20422     20425     20428     20430     20422     20425     20428     20431
     20423     20422     20425     20426     20423     20422     20425     20427
     20423     20422     20425     20428     20424     20422     20425     20426
     20424     20422     20425     20427     20424     20422     20425     20428
     20425     20428     20431     20432     20425     20428     20431     20433
     20425     20428     20431     20434     20426     20425     20428     20429
     20426     20425     20428     20430     20426     20425     20428     20431
     20427     20425     20428     20429     20427     20425     20428     20430
     20427     20425     20428     20431     20428     20431     20434     20435
     20428     20431     20434     20436     20428     20431     20434     20437
     20429     20428     20431     20432     20429     20428     20431     20433
     20429     20428     20431     20434     20430     20428     20431     20432
     20430     20428     20431     20433     20430     20428     20431     20434
     20431     20434     20437     20438     20431     20434     20437     20439
     20431     20434     20437     20440     20432     20431     20434     20435
     20432     20431     20434     20436     20432     20431     20434     20437
     20433     20431     20434     20435     20433     20431     20434     20436
     20433     20431     20434     20437     20434     20437     20440     20441
     20434     20437     20440     20442     20435     20434     20437     20438
     20435     20434     20437     20439     20435     20434     20437     20440
     20436     20434     20437     20438     20436     20434     20437     20439
     20436     20434     20437     20440     20437     20440     20442     20443
     20437     20440     20442     20444     20438     20437     20440     20441
     20438     20437     20440     20442     20439     20437     20440     20441
     20439     20437     20440     20442     20440     20442     20444     20445
     20440     20442     20444     20446     20440     20442     20444     20447
     20441     20440     20442     20443     20441     20440     20442     20444
     20442     20444     20447     20448     20442     20444     20447     20449
     20442     20444     20447     20450     20443     20442     20444     20445
     20443     20442     20444     20446     20443     20442     20444     20447
     20444     20447     20450     20451     20444     20447     20450     20452
     20444     20447     20450     20453     20445     20444     20447     20448
     20445     20444     20447     20449     20445     20444     20447     20450
     20446     20444     20447     20448     20446     20444     20447     20449
     20446     20444     20447     20450     20447     20450     20453     20454
     20447     20450     20453     20455     20447     20450     20453     20456
     20448     20447     20450     20451     20448     20447     20450     20452
     20448     20447     20450     20453     20449     20447     20450     20451
     20449     20447     20450     20452     20449     20447     20450     20453
     20450     20453     20456     20457     20450     20453     20456     20458
     20450     20453     20456     20459     20451     20450     20453     20454
     20451     20450     20453     20455     20451     20450     20453     20456
     20452     20450     20453     20454     20452     20450     20453     20455
     20452     20450     20453     20456     20453     20456     20459     20460
     20453     20456     20459     20461     20453     20456     20459     20462
     20454     20453     20456     20457     20454     20453     20456     20458
     20454     20453     20456     20459     20455     20453     20456     20457
     20455     20453     20456     20458     20455     20453     20456     20459
     20457     20456     20459     20460     20457     20456     20459     20461
     20457     20456     20459     20462     20458     20456     20459     20460
     20458     20456     20459     20461     20458     20456     20459     20462
     20463     20466     20469     20470     20463     20466     20469     20471
     20463     20466     20469     20472     20464     20463     20466     20467
     20464     20463     20466     20468     20464     20463     20466     20469
     20465     20463     20466     20467     20465     20463     20466     20468
     20465     20463     20466     20469     20466     20469     20472     20473
     20466     20469     20472     20474     20466     20469     20472     20475
     20467     20466     20469     20470     20467     20466     20469     20471
     20467     20466     20469     20472     20468     20466     20469     20470
     20468     20466     20469     20471     20468     20466     20469     20472
     20469     20472     20475     20476     20469     20472     20475     20477
     20469     20472     20475     20478     20470     20469     20472     20473
     20470     20469     20472     20474     20470     20469     20472     20475
     20471     20469     20472     20473     20471     20469     20472     20474
     20471     20469     20472     20475     20472     20475     20478     20479
     20472     20475     20478     20480     20472     20475     20478     20481
     20473     20472     20475     20476     20473     20472     20475     20477
     20473     20472     20475     20478     20474     20472     20475     20476
     20474     20472     20475     20477     20474     20472     20475     20478
     20475     20478     20481     20482     20475     20478     20481     20483
     20476     20475     20478     20479     20476     20475     20478     20480
     20476     20475     20478     20481     20477     20475     20478     20479
     20477     20475     20478     20480     20477     20475     20478     20481
     20478     20481     20483     20484     20478     20481     20483     20485
     20479     20478     20481     20482     20479     20478     20481     20483
     20480     20478     20481     20482     20480     20478     20481     20483
     20481     20483     20485     20486     20481     20483     20485     20487
     20481     20483     20485     20488     20482     20481     20483     20484
     20482     20481     20483     20485     20483     20485     20488     20489
     20483     20485     20488     20490     20483     20485     20488     20491
     20484     20483     20485     20486     20484     20483     20485     20487
     20484     20483     20485     20488     20485     20488     20491     20492
     20485     20488     20491     20493     20485     20488     20491     20494
     20486     20485     20488     20489     20486     20485     20488     20490
     20486     20485     20488     20491     20487     20485     20488     20489
     20487     20485     20488     20490     20487     20485     20488     20491
     20488     20491     20494     20495     20488     20491     20494     20496
     20488     20491     20494     20497     20489     20488     20491     20492
     20489     20488     20491     20493     20489     20488     20491     20494
     20490     20488     20491     20492     20490     20488     20491     20493
     20490     20488     20491     20494     20491     20494     20497     20498
     20491     20494     20497     20499     20491     20494     20497     20500
     20492     20491     20494     20495     20492     20491     20494     20496
     20492     20491     20494     20497     20493     20491     20494     20495
     20493     20491     20494     20496     20493     20491     20494     20497
     20494     20497     20500     20501     20494     20497     20500     20502
     20494     20497     20500     20503     20495     20494     20497     20498
     20495     20494     20497     20499     20495     20494     20497     20500
     20496     20494     20497     20498     20496     20494     20497     20499
     20496     20494     20497     20500     20497     20500     20503     20504
     20497     20500     20503     20505     20497     20500     20503     20506
     20498     20497     20500     20501     20498     20497     20500     20502
     20498     20497     20500     20503     20499     20497     20500     20501
     20499     20497     20500     20502     20499     20497     20500     20503
     20500     20503     20506     20507     20500     20503     20506     20508
     20500     20503     20506     20509     20501     20500     20503     20504
     20501     20500     20503     20505     20501     20500     20503     20506
     20502     20500     20503     20504     20502     20500     20503     20505
     20502     20500     20503     20506     20504     20503     20506     20507
     20504     20503     20506     20508     20504     20503     20506     20509
     20505     20503     20506     20507     20505     20503     20506     20508
     20505     20503     20506     20509     20510     20514     20517     20518
     20510     20514     20517     20519     20510     20514     20517     20524
     20511     20510     20514     20515     20511     20510     20514     20516
     20511     20510     20514     20517     20512     20510     20514     20515
     20512     20510     20514     20516     20512     20510     20514     20517
     20513     20510     20514     20515     20513     20510     20514     20516
     20513     20510     20514     20517     20514     20517     20524     20520
     20515     20514     20517     20518     20515     20514     20517     20519
     20515     20514     20517     20524     20516     20514     20517     20518
     20516     20514     20517     20519     20516     20514     20517     20524
     20517     20524     20520     20521     20517     20524     20520     20522
     20517     20524     20520     20523     20518     20517     20524     20520
     20519     20517     20524     20520     20520     20523     20525     20526
     20520     20523     20525     20527     20520     20523     20525     20528
     20521     20520     20523     20525     20522     20520     20523     20525
     20523     20525     20528     20529     20523     20525     20528     20530
     20523     20525     20528     20536     20524     20520     20523     20525
     20525     20528     20530     20531     20525     20528     20536     20537
     20525     20528     20536     20538     20525     20528     20536     20539
     20526     20525     20528     20529     20526     20525     20528     20530
     20526     20525     20528     20536     20527     20525     20528     20529
     20527     20525     20528     20530     20527     20525     20528     20536
     20528     20530     20531     20532     20528     20530     20531     20533
     20528     20536     20539     20540     20529     20528     20530     20531
     20529     20528     20536     20537     20529     20528     20536     20538
     20529     20528     20536     20539     20530     20528     20536     20537
     20530     20528     20536     20538     20530     20528     20536     20539
     20530     20531     20533     20534     20530     20531     20533     20535
     20530     20531     20533     20545     20531     20530     20528     20536
     20531     20533     20545     20546     20531     20533     20545     20547
     20531     20533     20545     20548     20532     20531     20533     20534
     20532     20531     20533     20535     20532     20531     20533     20545
     20533     20545     20548     20549     20533     20545     20548     20550
     20533     20545     20548     20551     20534     20533     20545     20546
     20534     20533     20545     20547     20534     20533     20545     20548
     20535     20533     20545     20546     20535     20533     20545     20547
     20535     20533     20545     20548     20536     20539     20540     20541
     20536     20539     20540     20542     20537     20536     20539     20540
     20538     20536     20539     20540     20539     20540     20542     20543
     20539     20540     20542     20544     20539     20540     20542     20589
     20540     20542     20589     20590     20540     20542     20589     20591
     20540     20542     20589     20592     20541     20540     20542     20543
     20541     20540     20542     20544     20541     20540     20542     20589
     20542     20589     20592     20593     20542     20589     20592     20594
     20542     20589     20592     20595     20543     20542     20589     20590
     20543     20542     20589     20591     20543     20542     20589     20592
     20544     20542     20589     20590     20544     20542     20589     20591
     20544     20542     20589     20592     20545     20548     20551     20552
     20545     20548     20551     20553     20545     20548     20551     20554
     20546     20545     20548     20549     20546     20545     20548     20550
     20546     20545     20548     20551     20547     20545     20548     20549
     20547     20545     20548     20550     20547     20545     20548     20551
     20548     20551     20554     20555     20548     20551     20554     20556
     20548     20551     20554     20557     20549     20548     20551     20552
     20549     20548     20551     20553     20549     20548     20551     20554
     20550     20548     20551     20552     20550     20548     20551     20553
     20550     20548     20551     20554     20551     20554     20557     20558
     20551     20554     20557     20559     20551     20554     20557     20560
     20552     20551     20554     20555     20552     20551     20554     20556
     20552     20551     20554     20557     20553     20551     20554     20555
     20553     20551     20554     20556     20553     20551     20554     20557
     20554     20557     20560     20561     20554     20557     20560     20562
     20554     20557     20560     20563     20555     20554     20557     20558
     20555     20554     20557     20559     20555     20554     20557     20560
     20556     20554     20557     20558     20556     20554     20557     20559
     20556     20554     20557     20560     20557     20560     20563     20564
     20557     20560     20563     20565     20557     20560     20563     20568
     20558     20557     20560     20561     20558     20557     20560     20562
     20558     20557     20560     20563     20559     20557     20560     20561
     20559     20557     20560     20562     20559     20557     20560     20563
     20560     20563     20565     20566     20560     20563     20565     20567
     20560     20563     20565     20568     20560     20563     20568     20565
     20560     20563     20568     20569     20560     20563     20568     20570
     20561     20560     20563     20564     20561     20560     20563     20565
     20561     20560     20563     20568     20562     20560     20563     20564
     20562     20560     20563     20565     20562     20560     20563     20568
     20563     20565     20568     20569     20563     20565     20568     20570
     20563     20568     20565     20566     20563     20568     20565     20567
     20563     20568     20570     20571     20563     20568     20570     20572
     20563     20568     20570     20573     20564     20563     20565     20566
     20564     20563     20565     20567     20564     20563     20565     20568
     20564     20563     20568     20565     20564     20563     20568     20569
     20564     20563     20568     20570     20565     20563     20568     20569
     20565     20563     20568     20570     20565     20568     20570     20571
     20565     20568     20570     20572     20565     20568     20570     20573
     20566     20565     20563     20568     20566     20565     20568     20569
     20566     20565     20568     20570     20567     20565     20563     20568
     20567     20565     20568     20569     20567     20565     20568     20570
     20568     20570     20573     20574     20568     20570     20573     20575
     20568     20570     20573     20576     20569     20568     20570     20571
     20569     20568     20570     20572     20569     20568     20570     20573
     20570     20573     20576     20577     20570     20573     20576     20578
     20570     20573     20576     20579     20571     20570     20573     20574
     20571     20570     20573     20575     20571     20570     20573     20576
     20572     20570     20573     20574     20572     20570     20573     20575
     20572     20570     20573     20576     20573     20576     20579     20580
     20573     20576     20579     20581     20573     20576     20579     20582
     20574     20573     20576     20577     20574     20573     20576     20578
     20574     20573     20576     20579     20575     20573     20576     20577
     20575     20573     20576     20578     20575     20573     20576     20579
     20576     20579     20582     20583     20576     20579     20582     20584
     20576     20579     20582     20585     20577     20576     20579     20580
     20577     20576     20579     20581     20577     20576     20579     20582
     20578     20576     20579     20580     20578     20576     20579     20581
     20578     20576     20579     20582     20579     20582     20585     20586
     20579     20582     20585     20587     20579     20582     20585     20588
     20580     20579     20582     20583     20580     20579     20582     20584
     20580     20579     20582     20585     20581     20579     20582     20583
     20581     20579     20582     20584     20581     20579     20582     20585
     20583     20582     20585     20586     20583     20582     20585     20587
     20583     20582     20585     20588     20584     20582     20585     20586
     20584     20582     20585     20587     20584     20582     20585     20588
     20589     20592     20595     20596     20589     20592     20595     20597
     20589     20592     20595     20598     20590     20589     20592     20593
     20590     20589     20592     20594     20590     20589     20592     20595
     20591     20589     20592     20593     20591     20589     20592     20594
     20591     20589     20592     20595     20592     20595     20598     20599
     20592     20595     20598     20600     20592     20595     20598     20601
     20593     20592     20595     20596     20593     20592     20595     20597
     20593     20592     20595     20598     20594     20592     20595     20596
     20594     20592     20595     20597     20594     20592     20595     20598
     20595     20598     20601     20602     20595     20598     20601     20603
     20595     20598     20601     20604     20596     20595     20598     20599
     20596     20595     20598     20600     20596     20595     20598     20601
     20597     20595     20598     20599     20597     20595     20598     20600
     20597     20595     20598     20601     20598     20601     20604     20605
     20598     20601     20604     20606     20598     20601     20604     20607
     20599     20598     20601     20602     20599     20598     20601     20603
     20599     20598     20601     20604     20600     20598     20601     20602
     20600     20598     20601     20603     20600     20598     20601     20604
     20601     20604     20607     20608     20601     20604     20607     20609
     20601     20604     20607     20610     20602     20601     20604     20605
     20602     20601     20604     20606     20602     20601     20604     20607
     20603     20601     20604     20605     20603     20601     20604     20606
     20603     20601     20604     20607     20604     20607     20610     20611
     20604     20607     20610     20612     20604     20607     20610     20613
     20605     20604     20607     20608     20605     20604     20607     20609
     20605     20604     20607     20610     20606     20604     20607     20608
     20606     20604     20607     20609     20606     20604     20607     20610
     20607     20610     20613     20614     20607     20610     20613     20615
     20607     20610     20613     20616     20608     20607     20610     20611
     20608     20607     20610     20612     20608     20607     20610     20613
     20609     20607     20610     20611     20609     20607     20610     20612
     20609     20607     20610     20613     20610     20613     20616     20617
     20610     20613     20616     20618     20610     20613     20616     20619
     20611     20610     20613     20614     20611     20610     20613     20615
     20611     20610     20613     20616     20612     20610     20613     20614
     20612     20610     20613     20615     20612     20610     20613     20616
     20613     20616     20619     20620     20613     20616     20619     20621
     20613     20616     20619     20622     20614     20613     20616     20617
     20614     20613     20616     20618     20614     20613     20616     20619
     20615     20613     20616     20617     20615     20613     20616     20618
     20615     20613     20616     20619     20616     20619     20622     20623
     20616     20619     20622     20624     20616     20619     20622     20625
     20617     20616     20619     20620     20617     20616     20619     20621
     20617     20616     20619     20622     20618     20616     20619     20620
     20618     20616     20619     20621     20618     20616     20619     20622
     20619     20622     20625     20626     20619     20622     20625     20627
     20619     20622     20625     20628     20620     20619     20622     20623
     20620     20619     20622     20624     20620     20619     20622     20625
     20621     20619     20622     20623     20621     20619     20622     20624
     20621     20619     20622     20625     20622     20625     20628     20629
     20622     20625     20628     20630     20622     20625     20628     20631
     20623     20622     20625     20626     20623     20622     20625     20627
     20623     20622     20625     20628     20624     20622     20625     20626
     20624     20622     20625     20627     20624     20622     20625     20628
     20626     20625     20628     20629     20626     20625     20628     20630
     20626     20625     20628     20631     20627     20625     20628     20629
     20627     20625     20628     20630     20627     20625     20628     20631
     20632     20636     20639     20640     20632     20636     20639     20641
     20632     20636     20639     20646     20633     20632     20636     20637
     20633     20632     20636     20638     20633     20632     20636     20639
     20634     20632     20636     20637     20634     20632     20636     20638
     20634     20632     20636     20639     20635     20632     20636     20637
     20635     20632     20636     20638     20635     20632     20636     20639
     20636     20639     20646     20642     20637     20636     20639     20640
     20637     20636     20639     20641     20637     20636     20639     20646
     20638     20636     20639     20640     20638     20636     20639     20641
     20638     20636     20639     20646     20639     20646     20642     20643
     20639     20646     20642     20644     20639     20646     20642     20645
     20640     20639     20646     20642     20641     20639     20646     20642
     20642     20645     20647     20648     20642     20645     20647     20649
     20642     20645     20647     20650     20643     20642     20645     20647
     20644     20642     20645     20647     20645     20647     20650     20651
     20645     20647     20650     20652     20645     20647     20650     20658
     20646     20642     20645     20647     20647     20650     20652     20653
     20647     20650     20658     20659     20647     20650     20658     20660
     20647     20650     20658     20661     20648     20647     20650     20651
     20648     20647     20650     20652     20648     20647     20650     20658
     20649     20647     20650     20651     20649     20647     20650     20652
     20649     20647     20650     20658     20650     20652     20653     20654
     20650     20652     20653     20655     20650     20658     20661     20662
     20651     20650     20652     20653     20651     20650     20658     20659
     20651     20650     20658     20660     20651     20650     20658     20661
     20652     20650     20658     20659     20652     20650     20658     20660
     20652     20650     20658     20661     20652     20653     20655     20656
     20652     20653     20655     20657     20652     20653     20655     20667
     20653     20652     20650     20658     20653     20655     20667     20668
     20653     20655     20667     20669     20653     20655     20667     20670
     20654     20653     20655     20656     20654     20653     20655     20657
     20654     20653     20655     20667     20655     20667     20670     20671
     20655     20667     20670     20672     20655     20667     20670     20673
     20656     20655     20667     20668     20656     20655     20667     20669
     20656     20655     20667     20670     20657     20655     20667     20668
     20657     20655     20667     20669     20657     20655     20667     20670
     20658     20661     20662     20663     20658     20661     20662     20664
     20659     20658     20661     20662     20660     20658     20661     20662
     20661     20662     20664     20665     20661     20662     20664     20666
     20661     20662     20664     20711     20662     20664     20711     20712
     20662     20664     20711     20713     20662     20664     20711     20714
     20663     20662     20664     20665     20663     20662     20664     20666
     20663     20662     20664     20711     20664     20711     20714     20715
     20664     20711     20714     20716     20664     20711     20714     20717
     20665     20664     20711     20712     20665     20664     20711     20713
     20665     20664     20711     20714     20666     20664     20711     20712
     20666     20664     20711     20713     20666     20664     20711     20714
     20667     20670     20673     20674     20667     20670     20673     20675
     20667     20670     20673     20676     20668     20667     20670     20671
     20668     20667     20670     20672     20668     20667     20670     20673
     20669     20667     20670     20671     20669     20667     20670     20672
     20669     20667     20670     20673     20670     20673     20676     20677
     20670     20673     20676     20678     20670     20673     20676     20679
     20671     20670     20673     20674     20671     20670     20673     20675
     20671     20670     20673     20676     20672     20670     20673     20674
     20672     20670     20673     20675     20672     20670     20673     20676
     20673     20676     20679     20680     20673     20676     20679     20681
     20673     20676     20679     20682     20674     20673     20676     20677
     20674     20673     20676     20678     20674     20673     20676     20679
     20675     20673     20676     20677     20675     20673     20676     20678
     20675     20673     20676     20679     20676     20679     20682     20683
     20676     20679     20682     20684     20676     20679     20682     20685
     20677     20676     20679     20680     20677     20676     20679     20681
     20677     20676     20679     20682     20678     20676     20679     20680
     20678     20676     20679     20681     20678     20676     20679     20682
     20679     20682     20685     20686     20679     20682     20685     20687
     20679     20682     20685     20690     20680     20679     20682     20683
     20680     20679     20682     20684     20680     20679     20682     20685
     20681     20679     20682     20683     20681     20679     20682     20684
     20681     20679     20682     20685     20682     20685     20687     20688
     20682     20685     20687     20689     20682     20685     20687     20690
     20682     20685     20690     20687     20682     20685     20690     20691
     20682     20685     20690     20692     20683     20682     20685     20686
     20683     20682     20685     20687     20683     20682     20685     20690
     20684     20682     20685     20686     20684     20682     20685     20687
     20684     20682     20685     20690     20685     20687     20690     20691
     20685     20687     20690     20692     20685     20690     20687     20688
     20685     20690     20687     20689     20685     20690     20692     20693
     20685     20690     20692     20694     20685     20690     20692     20695
     20686     20685     20687     20688     20686     20685     20687     20689
     20686     20685     20687     20690     20686     20685     20690     20687
     20686     20685     20690     20691     20686     20685     20690     20692
     20687     20685     20690     20691     20687     20685     20690     20692
     20687     20690     20692     20693     20687     20690     20692     20694
     20687     20690     20692     20695     20688     20687     20685     20690
     20688     20687     20690     20691     20688     20687     20690     20692
     20689     20687     20685     20690     20689     20687     20690     20691
     20689     20687     20690     20692     20690     20692     20695     20696
     20690     20692     20695     20697     20690     20692     20695     20698
     20691     20690     20692     20693     20691     20690     20692     20694
     20691     20690     20692     20695     20692     20695     20698     20699
     20692     20695     20698     20700     20692     20695     20698     20701
     20693     20692     20695     20696     20693     20692     20695     20697
     20693     20692     20695     20698     20694     20692     20695     20696
     20694     20692     20695     20697     20694     20692     20695     20698
     20695     20698     20701     20702     20695     20698     20701     20703
     20695     20698     20701     20704     20696     20695     20698     20699
     20696     20695     20698     20700     20696     20695     20698     20701
     20697     20695     20698     20699     20697     20695     20698     20700
     20697     20695     20698     20701     20698     20701     20704     20705
     20698     20701     20704     20706     20698     20701     20704     20707
     20699     20698     20701     20702     20699     20698     20701     20703
     20699     20698     20701     20704     20700     20698     20701     20702
     20700     20698     20701     20703     20700     20698     20701     20704
     20701     20704     20707     20708     20701     20704     20707     20709
     20701     20704     20707     20710     20702     20701     20704     20705
     20702     20701     20704     20706     20702     20701     20704     20707
     20703     20701     20704     20705     20703     20701     20704     20706
     20703     20701     20704     20707     20705     20704     20707     20708
     20705     20704     20707     20709     20705     20704     20707     20710
     20706     20704     20707     20708     20706     20704     20707     20709
     20706     20704     20707     20710     20711     20714     20717     20718
     20711     20714     20717     20719     20711     20714     20717     20720
     20712     20711     20714     20715     20712     20711     20714     20716
     20712     20711     20714     20717     20713     20711     20714     20715
     20713     20711     20714     20716     20713     20711     20714     20717
     20714     20717     20720     20721     20714     20717     20720     20722
     20714     20717     20720     20723     20715     20714     20717     20718
     20715     20714     20717     20719     20715     20714     20717     20720
     20716     20714     20717     20718     20716     20714     20717     20719
     20716     20714     20717     20720     20717     20720     20723     20724
     20717     20720     20723     20725     20717     20720     20723     20726
     20718     20717     20720     20721     20718     20717     20720     20722
     20718     20717     20720     20723     20719     20717     20720     20721
     20719     20717     20720     20722     20719     20717     20720     20723
     20720     20723     20726     20727     20720     20723     20726     20728
     20720     20723     20726     20729     20721     20720     20723     20724
     20721     20720     20723     20725     20721     20720     20723     20726
     20722     20720     20723     20724     20722     20720     20723     20725
     20722     20720     20723     20726     20723     20726     20729     20730
     20723     20726     20729     20731     20723     20726     20729     20732
     20724     20723     20726     20727     20724     20723     20726     20728
     20724     20723     20726     20729     20725     20723     20726     20727
     20725     20723     20726     20728     20725     20723     20726     20729
     20726     20729     20732     20733     20726     20729     20732     20734
     20726     20729     20732     20735     20727     20726     20729     20730
     20727     20726     20729     20731     20727     20726     20729     20732
     20728     20726     20729     20730     20728     20726     20729     20731
     20728     20726     20729     20732     20729     20732     20735     20736
     20729     20732     20735     20737     20729     20732     20735     20738
     20730     20729     20732     20733     20730     20729     20732     20734
     20730     20729     20732     20735     20731     20729     20732     20733
     20731     20729     20732     20734     20731     20729     20732     20735
     20732     20735     20738     20739     20732     20735     20738     20740
     20732     20735     20738     20741     20733     20732     20735     20736
     20733     20732     20735     20737     20733     20732     20735     20738
     20734     20732     20735     20736     20734     20732     20735     20737
     20734     20732     20735     20738     20735     20738     20741     20742
     20735     20738     20741     20743     20735     20738     20741     20744
     20736     20735     20738     20739     20736     20735     20738     20740
     20736     20735     20738     20741     20737     20735     20738     20739
     20737     20735     20738     20740     20737     20735     20738     20741
     20738     20741     20744     20745     20738     20741     20744     20746
     20738     20741     20744     20747     20739     20738     20741     20742
     20739     20738     20741     20743     20739     20738     20741     20744
     20740     20738     20741     20742     20740     20738     20741     20743
     20740     20738     20741     20744     20741     20744     20747     20748
     20741     20744     20747     20749     20741     20744     20747     20750
     20742     20741     20744     20745     20742     20741     20744     20746
     20742     20741     20744     20747     20743     20741     20744     20745
     20743     20741     20744     20746     20743     20741     20744     20747
     20744     20747     20750     20751     20744     20747     20750     20752
     20744     20747     20750     20753     20745     20744     20747     20748
     20745     20744     20747     20749     20745     20744     20747     20750
     20746     20744     20747     20748     20746     20744     20747     20749
     20746     20744     20747     20750     20748     20747     20750     20751
     20748     20747     20750     20752     20748     20747     20750     20753
     20749     20747     20750     20751     20749     20747     20750     20752
     20749     20747     20750     20753     20754     20758     20761     20762
     20754     20758     20761     20763     20754     20758     20761     20768
     20755     20754     20758     20759     20755     20754     20758     20760
     20755     20754     20758     20761     20756     20754     20758     20759
     20756     20754     20758     20760     20756     20754     20758     20761
     20757     20754     20758     20759     20757     20754     20758     20760
     20757     20754     20758     20761     20758     20761     20768     20764
     20759     20758     20761     20762     20759     20758     20761     20763
     20759     20758     20761     20768     20760     20758     20761     20762
     20760     20758     20761     20763     20760     20758     20761     20768
     20761     20768     20764     20765     20761     20768     20764     20766
     20761     20768     20764     20767     20762     20761     20768     20764
     20763     20761     20768     20764     20764     20767     20769     20770
     20764     20767     20769     20771     20764     20767     20769     20772
     20765     20764     20767     20769     20766     20764     20767     20769
     20767     20769     20772     20773     20767     20769     20772     20774
     20767     20769     20772     20780     20768     20764     20767     20769
     20769     20772     20774     20775     20769     20772     20780     20781
     20769     20772     20780     20782     20769     20772     20780     20783
     20770     20769     20772     20773     20770     20769     20772     20774
     20770     20769     20772     20780     20771     20769     20772     20773
     20771     20769     20772     20774     20771     20769     20772     20780
     20772     20774     20775     20776     20772     20774     20775     20777
     20772     20780     20783     20784     20773     20772     20774     20775
     20773     20772     20780     20781     20773     20772     20780     20782
     20773     20772     20780     20783     20774     20772     20780     20781
     20774     20772     20780     20782     20774     20772     20780     20783
     20774     20775     20777     20778     20774     20775     20777     20779
     20774     20775     20777     20789     20775     20774     20772     20780
     20775     20777     20789     20790     20775     20777     20789     20791
     20775     20777     20789     20792     20776     20775     20777     20778
     20776     20775     20777     20779     20776     20775     20777     20789
     20777     20789     20792     20793     20777     20789     20792     20794
     20777     20789     20792     20795     20778     20777     20789     20790
     20778     20777     20789     20791     20778     20777     20789     20792
     20779     20777     20789     20790     20779     20777     20789     20791
     20779     20777     20789     20792     20780     20783     20784     20785
     20780     20783     20784     20786     20781     20780     20783     20784
     20782     20780     20783     20784     20783     20784     20786     20787
     20783     20784     20786     20788     20783     20784     20786     20833
     20784     20786     20833     20834     20784     20786     20833     20835
     20784     20786     20833     20836     20785     20784     20786     20787
     20785     20784     20786     20788     20785     20784     20786     20833
     20786     20833     20836     20837     20786     20833     20836     20838
     20786     20833     20836     20839     20787     20786     20833     20834
     20787     20786     20833     20835     20787     20786     20833     20836
     20788     20786     20833     20834     20788     20786     20833     20835
     20788     20786     20833     20836     20789     20792     20795     20796
     20789     20792     20795     20797     20789     20792     20795     20798
     20790     20789     20792     20793     20790     20789     20792     20794
     20790     20789     20792     20795     20791     20789     20792     20793
     20791     20789     20792     20794     20791     20789     20792     20795
     20792     20795     20798     20799     20792     20795     20798     20800
     20792     20795     20798     20801     20793     20792     20795     20796
     20793     20792     20795     20797     20793     20792     20795     20798
     20794     20792     20795     20796     20794     20792     20795     20797
     20794     20792     20795     20798     20795     20798     20801     20802
     20795     20798     20801     20803     20795     20798     20801     20804
     20796     20795     20798     20799     20796     20795     20798     20800
     20796     20795     20798     20801     20797     20795     20798     20799
     20797     20795     20798     20800     20797     20795     20798     20801
     20798     20801     20804     20805     20798     20801     20804     20806
     20798     20801     20804     20807     20799     20798     20801     20802
     20799     20798     20801     20803     20799     20798     20801     20804
     20800     20798     20801     20802     20800     20798     20801     20803
     20800     20798     20801     20804     20801     20804     20807     20808
     20801     20804     20807     20809     20801     20804     20807     20812
     20802     20801     20804     20805     20802     20801     20804     20806
     20802     20801     20804     20807     20803     20801     20804     20805
     20803     20801     20804     20806     20803     20801     20804     20807
     20804     20807     20809     20810     20804     20807     20809     20811
     20804     20807     20809     20812     20804     20807     20812     20809
     20804     20807     20812     20813     20804     20807     20812     20814
     20805     20804     20807     20808     20805     20804     20807     20809
     20805     20804     20807     20812     20806     20804     20807     20808
     20806     20804     20807     20809     20806     20804     20807     20812
     20807     20809     20812     20813     20807     20809     20812     20814
     20807     20812     20809     20810     20807     20812     20809     20811
     20807     20812     20814     20815     20807     20812     20814     20816
     20807     20812     20814     20817     20808     20807     20809     20810
     20808     20807     20809     20811     20808     20807     20809     20812
     20808     20807     20812     20809     20808     20807     20812     20813
     20808     20807     20812     20814     20809     20807     20812     20813
     20809     20807     20812     20814     20809     20812     20814     20815
     20809     20812     20814     20816     20809     20812     20814     20817
     20810     20809     20807     20812     20810     20809     20812     20813
     20810     20809     20812     20814     20811     20809     20807     20812
     20811     20809     20812     20813     20811     20809     20812     20814
     20812     20814     20817     20818     20812     20814     20817     20819
     20812     20814     20817     20820     20813     20812     20814     20815
     20813     20812     20814     20816     20813     20812     20814     20817
     20814     20817     20820     20821     20814     20817     20820     20822
     20814     20817     20820     20823     20815     20814     20817     20818
     20815     20814     20817     20819     20815     20814     20817     20820
     20816     20814     20817     20818     20816     20814     20817     20819
     20816     20814     20817     20820     20817     20820     20823     20824
     20817     20820     20823     20825     20817     20820     20823     20826
     20818     20817     20820     20821     20818     20817     20820     20822
     20818     20817     20820     20823     20819     20817     20820     20821
     20819     20817     20820     20822     20819     20817     20820     20823
     20820     20823     20826     20827     20820     20823     20826     20828
     20820     20823     20826     20829     20821     20820     20823     20824
     20821     20820     20823     20825     20821     20820     20823     20826
     20822     20820     20823     20824     20822     20820     20823     20825
     20822     20820     20823     20826     20823     20826     20829     20830
     20823     20826     20829     20831     20823     20826     20829     20832
     20824     20823     20826     20827     20824     20823     20826     20828
     20824     20823     20826     20829     20825     20823     20826     20827
     20825     20823     20826     20828     20825     20823     20826     20829
     20827     20826     20829     20830     20827     20826     20829     20831
     20827     20826     20829     20832     20828     20826     20829     20830
     20828     20826     20829     20831     20828     20826     20829     20832
     20833     20836     20839     20840     20833     20836     20839     20841
     20833     20836     20839     20842     20834     20833     20836     20837
     20834     20833     20836     20838     20834     20833     20836     20839
     20835     20833     20836     20837     20835     20833     20836     20838
     20835     20833     20836     20839     20836     20839     20842     20843
     20836     20839     20842     20844     20836     20839     20842     20845
     20837     20836     20839     20840     20837     20836     20839     20841
     20837     20836     20839     20842     20838     20836     20839     20840
     20838     20836     20839     20841     20838     20836     20839     20842
     20839     20842     20845     20846     20839     20842     20845     20847
     20839     20842     20845     20848     20840     20839     20842     20843
     20840     20839     20842     20844     20840     20839     20842     20845
     20841     20839     20842     20843     20841     20839     20842     20844
     20841     20839     20842     20845     20842     20845     20848     20849
     20842     20845     20848     20850     20842     20845     20848     20851
     20843     20842     20845     20846     20843     20842     20845     20847
     20843     20842     20845     20848     20844     20842     20845     20846
     20844     20842     20845     20847     20844     20842     20845     20848
     20845     20848     20851     20852     20845     20848     20851     20853
     20845     20848     20851     20854     20846     20845     20848     20849
     20846     20845     20848     20850     20846     20845     20848     20851
     20847     20845     20848     20849     20847     20845     20848     20850
     20847     20845     20848     20851     20848     20851     20854     20855
     20848     20851     20854     20856     20848     20851     20854     20857
     20849     20848     20851     20852     20849     20848     20851     20853
     20849     20848     20851     20854     20850     20848     20851     20852
     20850     20848     20851     20853     20850     20848     20851     20854
     20851     20854     20857     20858     20851     20854     20857     20859
     20851     20854     20857     20860     20852     20851     20854     20855
     20852     20851     20854     20856     20852     20851     20854     20857
     20853     20851     20854     20855     20853     20851     20854     20856
     20853     20851     20854     20857     20854     20857     20860     20861
     20854     20857     20860     20862     20854     20857     20860     20863
     20855     20854     20857     20858     20855     20854     20857     20859
     20855     20854     20857     20860     20856     20854     20857     20858
     20856     20854     20857     20859     20856     20854     20857     20860
     20857     20860     20863     20864     20857     20860     20863     20865
     20857     20860     20863     20866     20858     20857     20860     20861
     20858     20857     20860     20862     20858     20857     20860     20863
     20859     20857     20860     20861     20859     20857     20860     20862
     20859     20857     20860     20863     20860     20863     20866     20867
     20860     20863     20866     20868     20860     20863     20866     20869
     20861     20860     20863     20864     20861     20860     20863     20865
     20861     20860     20863     20866     20862     20860     20863     20864
     20862     20860     20863     20865     20862     20860     20863     20866
     20863     20866     20869     20870     20863     20866     20869     20871
     20863     20866     20869     20872     20864     20863     20866     20867
     20864     20863     20866     20868     20864     20863     20866     20869
     20865     20863     20866     20867     20865     20863     20866     20868
     20865     20863     20866     20869     20866     20869     20872     20873
     20866     20869     20872     20874     20866     20869     20872     20875
     20867     20866     20869     20870     20867     20866     20869     20871
     20867     20866     20869     20872     20868     20866     20869     20870
     20868     20866     20869     20871     20868     20866     20869     20872
     20870     20869     20872     20873     20870     20869     20872     20874
     20870     20869     20872     20875     20871     20869     20872     20873
     20871     20869     20872     20874     20871     20869     20872     20875
     20876     20880     20883     20884     20876     20880     20883     20885
     20876     20880     20883     20890     20877     20876     20880     20881
     20877     20876     20880     20882     20877     20876     20880     20883
     20878     20876     20880     20881     20878     20876     20880     20882
     20878     20876     20880     20883     20879     20876     20880     20881
     20879     20876     20880     20882     20879     20876     20880     20883
     20880     20883     20890     20886     20881     20880     20883     20884
     20881     20880     20883     20885     20881     20880     20883     20890
     20882     20880     20883     20884     20882     20880     20883     20885
     20882     20880     20883     20890     20883     20890     20886     20887
     20883     20890     20886     20888     20883     20890     20886     20889
     20884     20883     20890     20886     20885     20883     20890     20886
     20886     20889     20891     20892     20886     20889     20891     20893
     20886     20889     20891     20894     20887     20886     20889     20891
     20888     20886     20889     20891     20889     20891     20894     20895
     20889     20891     20894     20896     20889     20891     20894     20902
     20890     20886     20889     20891     20891     20894     20896     20897
     20891     20894     20902     20903     20891     20894     20902     20904
     20891     20894     20902     20905     20892     20891     20894     20895
     20892     20891     20894     20896     20892     20891     20894     20902
     20893     20891     20894     20895     20893     20891     20894     20896
     20893     20891     20894     20902     20894     20896     20897     20898
     20894     20896     20897     20899     20894     20902     20905     20906
     20895     20894     20896     20897     20895     20894     20902     20903
     20895     20894     20902     20904     20895     20894     20902     20905
     20896     20894     20902     20903     20896     20894     20902     20904
     20896     20894     20902     20905     20896     20897     20899     20900
     20896     20897     20899     20901     20896     20897     20899     20911
     20897     20896     20894     20902     20897     20899     20911     20912
     20897     20899     20911     20913     20897     20899     20911     20914
     20898     20897     20899     20900     20898     20897     20899     20901
     20898     20897     20899     20911     20899     20911     20914     20915
     20899     20911     20914     20916     20899     20911     20914     20917
     20900     20899     20911     20912     20900     20899     20911     20913
     20900     20899     20911     20914     20901     20899     20911     20912
     20901     20899     20911     20913     20901     20899     20911     20914
     20902     20905     20906     20907     20902     20905     20906     20908
     20903     20902     20905     20906     20904     20902     20905     20906
     20905     20906     20908     20909     20905     20906     20908     20910
     20905     20906     20908     20958     20906     20908     20958     20959
     20906     20908     20958     20960     20906     20908     20958     20961
     20907     20906     20908     20909     20907     20906     20908     20910
     20907     20906     20908     20958     20908     20958     20961     20962
     20908     20958     20961     20963     20908     20958     20961     20964
     20909     20908     20958     20959     20909     20908     20958     20960
     20909     20908     20958     20961     20910     20908     20958     20959
     20910     20908     20958     20960     20910     20908     20958     20961
     20911     20914     20917     20918     20911     20914     20917     20919
     20911     20914     20917     20920     20912     20911     20914     20915
     20912     20911     20914     20916     20912     20911     20914     20917
     20913     20911     20914     20915     20913     20911     20914     20916
     20913     20911     20914     20917     20914     20917     20920     20921
     20914     20917     20920     20922     20914     20917     20920     20923
     20915     20914     20917     20918     20915     20914     20917     20919
     20915     20914     20917     20920     20916     20914     20917     20918
     20916     20914     20917     20919     20916     20914     20917     20920
     20917     20920     20923     20924     20917     20920     20923     20925
     20917     20920     20923     20926     20918     20917     20920     20921
     20918     20917     20920     20922     20918     20917     20920     20923
     20919     20917     20920     20921     20919     20917     20920     20922
     20919     20917     20920     20923     20920     20923     20926     20927
     20920     20923     20926     20928     20920     20923     20926     20929
     20921     20920     20923     20924     20921     20920     20923     20925
     20921     20920     20923     20926     20922     20920     20923     20924
     20922     20920     20923     20925     20922     20920     20923     20926
     20923     20926     20929     20930     20923     20926     20929     20931
     20924     20923     20926     20927     20924     20923     20926     20928
     20924     20923     20926     20929     20925     20923     20926     20927
     20925     20923     20926     20928     20925     20923     20926     20929
     20926     20929     20931     20932     20926     20929     20931     20933
     20927     20926     20929     20930     20927     20926     20929     20931
     20928     20926     20929     20930     20928     20926     20929     20931
     20929     20931     20933     20934     20929     20931     20933     20935
     20929     20931     20933     20936     20930     20929     20931     20932
     20930     20929     20931     20933     20931     20933     20936     20937
     20931     20933     20936     20938     20931     20933     20936     20939
     20932     20931     20933     20934     20932     20931     20933     20935
     20932     20931     20933     20936     20933     20936     20939     20940
     20933     20936     20939     20941     20933     20936     20939     20942
     20934     20933     20936     20937     20934     20933     20936     20938
     20934     20933     20936     20939     20935     20933     20936     20937
     20935     20933     20936     20938     20935     20933     20936     20939
     20936     20939     20942     20943     20936     20939     20942     20944
     20936     20939     20942     20945     20937     20936     20939     20940
     20937     20936     20939     20941     20937     20936     20939     20942
     20938     20936     20939     20940     20938     20936     20939     20941
     20938     20936     20939     20942     20939     20942     20945     20946
     20939     20942     20945     20947     20939     20942     20945     20948
     20940     20939     20942     20943     20940     20939     20942     20944
     20940     20939     20942     20945     20941     20939     20942     20943
     20941     20939     20942     20944     20941     20939     20942     20945
     20942     20945     20948     20949     20942     20945     20948     20950
     20942     20945     20948     20951     20943     20942     20945     20946
     20943     20942     20945     20947     20943     20942     20945     20948
     20944     20942     20945     20946     20944     20942     20945     20947
     20944     20942     20945     20948     20945     20948     20951     20952
     20945     20948     20951     20953     20945     20948     20951     20954
     20946     20945     20948     20949     20946     20945     20948     20950
     20946     20945     20948     20951     20947     20945     20948     20949
     20947     20945     20948     20950     20947     20945     20948     20951
     20948     20951     20954     20955     20948     20951     20954     20956
     20948     20951     20954     20957     20949     20948     20951     20952
     20949     20948     20951     20953     20949     20948     20951     20954
     20950     20948     20951     20952     20950     20948     20951     20953
     20950     20948     20951     20954     20952     20951     20954     20955
     20952     20951     20954     20956     20952     20951     20954     20957
     20953     20951     20954     20955     20953     20951     20954     20956
     20953     20951     20954     20957     20958     20961     20964     20965
     20958     20961     20964     20966     20958     20961     20964     20967
     20959     20958     20961     20962     20959     20958     20961     20963
     20959     20958     20961     20964     20960     20958     20961     20962
     20960     20958     20961     20963     20960     20958     20961     20964
     20961     20964     20967     20968     20961     20964     20967     20969
     20961     20964     20967     20970     20962     20961     20964     20965
     20962     20961     20964     20966     20962     20961     20964     20967
     20963     20961     20964     20965     20963     20961     20964     20966
     20963     20961     20964     20967     20964     20967     20970     20971
     20964     20967     20970     20972     20964     20967     20970     20973
     20965     20964     20967     20968     20965     20964     20967     20969
     20965     20964     20967     20970     20966     20964     20967     20968
     20966     20964     20967     20969     20966     20964     20967     20970
     20967     20970     20973     20974     20967     20970     20973     20975
     20967     20970     20973     20976     20968     20967     20970     20971
     20968     20967     20970     20972     20968     20967     20970     20973
     20969     20967     20970     20971     20969     20967     20970     20972
     20969     20967     20970     20973     20970     20973     20976     20977
     20970     20973     20976     20978     20970     20973     20976     20979
     20971     20970     20973     20974     20971     20970     20973     20975
     20971     20970     20973     20976     20972     20970     20973     20974
     20972     20970     20973     20975     20972     20970     20973     20976
     20973     20976     20979     20980     20973     20976     20979     20981
     20973     20976     20979     20982     20974     20973     20976     20977
     20974     20973     20976     20978     20974     20973     20976     20979
     20975     20973     20976     20977     20975     20973     20976     20978
     20975     20973     20976     20979     20976     20979     20982     20983
     20976     20979     20982     20984     20976     20979     20982     20985
     20977     20976     20979     20980     20977     20976     20979     20981
     20977     20976     20979     20982     20978     20976     20979     20980
     20978     20976     20979     20981     20978     20976     20979     20982
     20979     20982     20985     20986     20979     20982     20985     20987
     20979     20982     20985     20988     20980     20979     20982     20983
     20980     20979     20982     20984     20980     20979     20982     20985
     20981     20979     20982     20983     20981     20979     20982     20984
     20981     20979     20982     20985     20982     20985     20988     20989
     20982     20985     20988     20990     20982     20985     20988     20991
     20983     20982     20985     20986     20983     20982     20985     20987
     20983     20982     20985     20988     20984     20982     20985     20986
     20984     20982     20985     20987     20984     20982     20985     20988
     20985     20988     20991     20992     20985     20988     20991     20993
     20985     20988     20991     20994     20986     20985     20988     20989
     20986     20985     20988     20990     20986     20985     20988     20991
     20987     20985     20988     20989     20987     20985     20988     20990
     20987     20985     20988     20991     20988     20991     20994     20995
     20988     20991     20994     20996     20988     20991     20994     20997
     20989     20988     20991     20992     20989     20988     20991     20993
     20989     20988     20991     20994     20990     20988     20991     20992
     20990     20988     20991     20993     20990     20988     20991     20994
     20991     20994     20997     20998     20991     20994     20997     20999
     20991     20994     20997     21000     20992     20991     20994     20995
     20992     20991     20994     20996     20992     20991     20994     20997
     20993     20991     20994     20995     20993     20991     20994     20996
     20993     20991     20994     20997     20995     20994     20997     20998
     20995     20994     20997     20999     20995     20994     20997     21000
     20996     20994     20997     20998     20996     20994     20997     20999
     20996     20994     20997     21000     21001     21005     21008     21009
     21001     21005     21008     21010     21001     21005     21008     21015
     21002     21001     21005     21006     21002     21001     21005     21007
     21002     21001     21005     21008     21003     21001     21005     21006
     21003     21001     21005     21007     21003     21001     21005     21008
     21004     21001     21005     21006     21004     21001     21005     21007
     21004     21001     21005     21008     21005     21008     21015     21011
     21006     21005     21008     21009     21006     21005     21008     21010
     21006     21005     21008     21015     21007     21005     21008     21009
     21007     21005     21008     21010     21007     21005     21008     21015
     21008     21015     21011     21012     21008     21015     21011     21013
     21008     21015     21011     21014     21009     21008     21015     21011
     21010     21008     21015     21011     21011     21014     21016     21017
     21011     21014     21016     21018     21011     21014     21016     21019
     21012     21011     21014     21016     21013     21011     21014     21016
     21014     21016     21019     21020     21014     21016     21019     21021
     21014     21016     21019     21027     21015     21011     21014     21016
     21016     21019     21021     21022     21016     21019     21027     21028
     21016     21019     21027     21029     21016     21019     21027     21030
     21017     21016     21019     21020     21017     21016     21019     21021
     21017     21016     21019     21027     21018     21016     21019     21020
     21018     21016     21019     21021     21018     21016     21019     21027
     21019     21021     21022     21023     21019     21021     21022     21024
     21019     21027     21030     21031     21020     21019     21021     21022
     21020     21019     21027     21028     21020     21019     21027     21029
     21020     21019     21027     21030     21021     21019     21027     21028
     21021     21019     21027     21029     21021     21019     21027     21030
     21021     21022     21024     21025     21021     21022     21024     21026
     21021     21022     21024     21036     21022     21021     21019     21027
     21022     21024     21036     21037     21022     21024     21036     21038
     21022     21024     21036     21039     21023     21022     21024     21025
     21023     21022     21024     21026     21023     21022     21024     21036
     21024     21036     21039     21040     21024     21036     21039     21041
     21024     21036     21039     21042     21025     21024     21036     21037
     21025     21024     21036     21038     21025     21024     21036     21039
     21026     21024     21036     21037     21026     21024     21036     21038
     21026     21024     21036     21039     21027     21030     21031     21032
     21027     21030     21031     21033     21028     21027     21030     21031
     21029     21027     21030     21031     21030     21031     21033     21034
     21030     21031     21033     21035     21030     21031     21033     21083
     21031     21033     21083     21084     21031     21033     21083     21085
     21031     21033     21083     21086     21032     21031     21033     21034
     21032     21031     21033     21035     21032     21031     21033     21083
     21033     21083     21086     21087     21033     21083     21086     21088
     21033     21083     21086     21089     21034     21033     21083     21084
     21034     21033     21083     21085     21034     21033     21083     21086
     21035     21033     21083     21084     21035     21033     21083     21085
     21035     21033     21083     21086     21036     21039     21042     21043
     21036     21039     21042     21044     21036     21039     21042     21045
     21037     21036     21039     21040     21037     21036     21039     21041
     21037     21036     21039     21042     21038     21036     21039     21040
     21038     21036     21039     21041     21038     21036     21039     21042
     21039     21042     21045     21046     21039     21042     21045     21047
     21039     21042     21045     21048     21040     21039     21042     21043
     21040     21039     21042     21044     21040     21039     21042     21045
     21041     21039     21042     21043     21041     21039     21042     21044
     21041     21039     21042     21045     21042     21045     21048     21049
     21042     21045     21048     21050     21042     21045     21048     21051
     21043     21042     21045     21046     21043     21042     21045     21047
     21043     21042     21045     21048     21044     21042     21045     21046
     21044     21042     21045     21047     21044     21042     21045     21048
     21045     21048     21051     21052     21045     21048     21051     21053
     21045     21048     21051     21054     21046     21045     21048     21049
     21046     21045     21048     21050     21046     21045     21048     21051
     21047     21045     21048     21049     21047     21045     21048     21050
     21047     21045     21048     21051     21048     21051     21054     21055
     21048     21051     21054     21056     21049     21048     21051     21052
     21049     21048     21051     21053     21049     21048     21051     21054
     21050     21048     21051     21052     21050     21048     21051     21053
     21050     21048     21051     21054     21051     21054     21056     21057
     21051     21054     21056     21058     21052     21051     21054     21055
     21052     21051     21054     21056     21053     21051     21054     21055
     21053     21051     21054     21056     21054     21056     21058     21059
     21054     21056     21058     21060     21054     21056     21058     21061
     21055     21054     21056     21057     21055     21054     21056     21058
     21056     21058     21061     21062     21056     21058     21061     21063
     21056     21058     21061     21064     21057     21056     21058     21059
     21057     21056     21058     21060     21057     21056     21058     21061
     21058     21061     21064     21065     21058     21061     21064     21066
     21058     21061     21064     21067     21059     21058     21061     21062
     21059     21058     21061     21063     21059     21058     21061     21064
     21060     21058     21061     21062     21060     21058     21061     21063
     21060     21058     21061     21064     21061     21064     21067     21068
     21061     21064     21067     21069     21061     21064     21067     21070
     21062     21061     21064     21065     21062     21061     21064     21066
     21062     21061     21064     21067     21063     21061     21064     21065
     21063     21061     21064     21066     21063     21061     21064     21067
     21064     21067     21070     21071     21064     21067     21070     21072
     21064     21067     21070     21073     21065     21064     21067     21068
     21065     21064     21067     21069     21065     21064     21067     21070
     21066     21064     21067     21068     21066     21064     21067     21069
     21066     21064     21067     21070     21067     21070     21073     21074
     21067     21070     21073     21075     21067     21070     21073     21076
     21068     21067     21070     21071     21068     21067     21070     21072
     21068     21067     21070     21073     21069     21067     21070     21071
     21069     21067     21070     21072     21069     21067     21070     21073
     21070     21073     21076     21077     21070     21073     21076     21078
     21070     21073     21076     21079     21071     21070     21073     21074
     21071     21070     21073     21075     21071     21070     21073     21076
     21072     21070     21073     21074     21072     21070     21073     21075
     21072     21070     21073     21076     21073     21076     21079     21080
     21073     21076     21079     21081     21073     21076     21079     21082
     21074     21073     21076     21077     21074     21073     21076     21078
     21074     21073     21076     21079     21075     21073     21076     21077
     21075     21073     21076     21078     21075     21073     21076     21079
     21077     21076     21079     21080     21077     21076     21079     21081
     21077     21076     21079     21082     21078     21076     21079     21080
     21078     21076     21079     21081     21078     21076     21079     21082
     21083     21086     21089     21090     21083     21086     21089     21091
     21083     21086     21089     21092     21084     21083     21086     21087
     21084     21083     21086     21088     21084     21083     21086     21089
     21085     21083     21086     21087     21085     21083     21086     21088
     21085     21083     21086     21089     21086     21089     21092     21093
     21086     21089     21092     21094     21086     21089     21092     21095
     21087     21086     21089     21090     21087     21086     21089     21091
     21087     21086     21089     21092     21088     21086     21089     21090
     21088     21086     21089     21091     21088     21086     21089     21092
     21089     21092     21095     21096     21089     21092     21095     21097
     21089     21092     21095     21098     21090     21089     21092     21093
     21090     21089     21092     21094     21090     21089     21092     21095
     21091     21089     21092     21093     21091     21089     21092     21094
     21091     21089     21092     21095     21092     21095     21098     21099
     21092     21095     21098     21100     21092     21095     21098     21101
     21093     21092     21095     21096     21093     21092     21095     21097
     21093     21092     21095     21098     21094     21092     21095     21096
     21094     21092     21095     21097     21094     21092     21095     21098
     21095     21098     21101     21102     21095     21098     21101     21103
     21095     21098     21101     21104     21096     21095     21098     21099
     21096     21095     21098     21100     21096     21095     21098     21101
     21097     21095     21098     21099     21097     21095     21098     21100
     21097     21095     21098     21101     21098     21101     21104     21105
     21098     21101     21104     21106     21098     21101     21104     21107
     21099     21098     21101     21102     21099     21098     21101     21103
     21099     21098     21101     21104     21100     21098     21101     21102
     21100     21098     21101     21103     21100     21098     21101     21104
     21101     21104     21107     21108     21101     21104     21107     21109
     21101     21104     21107     21110     21102     21101     21104     21105
     21102     21101     21104     21106     21102     21101     21104     21107
     21103     21101     21104     21105     21103     21101     21104     21106
     21103     21101     21104     21107     21104     21107     21110     21111
     21104     21107     21110     21112     21104     21107     21110     21113
     21105     21104     21107     21108     21105     21104     21107     21109
     21105     21104     21107     21110     21106     21104     21107     21108
     21106     21104     21107     21109     21106     21104     21107     21110
     21107     21110     21113     21114     21107     21110     21113     21115
     21107     21110     21113     21116     21108     21107     21110     21111
     21108     21107     21110     21112     21108     21107     21110     21113
     21109     21107     21110     21111     21109     21107     21110     21112
     21109     21107     21110     21113     21110     21113     21116     21117
     21110     21113     21116     21118     21110     21113     21116     21119
     21111     21110     21113     21114     21111     21110     21113     21115
     21111     21110     21113     21116     21112     21110     21113     21114
     21112     21110     21113     21115     21112     21110     21113     21116
     21113     21116     21119     21120     21113     21116     21119     21121
     21113     21116     21119     21122     21114     21113     21116     21117
     21114     21113     21116     21118     21114     21113     21116     21119
     21115     21113     21116     21117     21115     21113     21116     21118
     21115     21113     21116     21119     21116     21119     21122     21123
     21116     21119     21122     21124     21116     21119     21122     21125
     21117     21116     21119     21120     21117     21116     21119     21121
     21117     21116     21119     21122     21118     21116     21119     21120
     21118     21116     21119     21121     21118     21116     21119     21122
     21120     21119     21122     21123     21120     21119     21122     21124
     21120     21119     21122     21125     21121     21119     21122     21123
     21121     21119     21122     21124     21121     21119     21122     21125
     21126     21131     21133     21134     21126     21131     21135     21136
     21126     21131     21135     21137     21126     21131     21135     21142
     21127     21126     21129     21130     21127     21126     21131     21132
     21127     21126     21131     21133     21127     21126     21131     21135
     21128     21126     21129     21130     21128     21126     21131     21132
     21128     21126     21131     21133     21128     21126     21131     21135
     21129     21126     21131     21132     21129     21126     21131     21133
     21129     21126     21131     21135     21130     21129     21126     21131
     21131     21135     21142     21138     21132     21131     21133     21134
     21132     21131     21135     21136     21132     21131     21135     21137
     21132     21131     21135     21142     21133     21131     21135     21136
     21133     21131     21135     21137     21133     21131     21135     21142
     21134     21133     21131     21135     21135     21142     21138     21139
     21135     21142     21138     21140     21135     21142     21138     21141
     21136     21135     21142     21138     21137     21135     21142     21138
     21138     21141     21143     21144     21138     21141     21143     21145
     21138     21141     21143     21146     21139     21138     21141     21143
     21140     21138     21141     21143     21141     21143     21146     21147
     21141     21143     21146     21148     21141     21143     21146     21154
     21142     21138     21141     21143     21143     21146     21148     21149
     21143     21146     21154     21155     21143     21146     21154     21156
     21143     21146     21154     21157     21144     21143     21146     21147
     21144     21143     21146     21148     21144     21143     21146     21154
     21145     21143     21146     21147     21145     21143     21146     21148
     21145     21143     21146     21154     21146     21148     21149     21150
     21146     21148     21149     21151     21146     21154     21157     21158
     21147     21146     21148     21149     21147     21146     21154     21155
     21147     21146     21154     21156     21147     21146     21154     21157
     21148     21146     21154     21155     21148     21146     21154     21156
     21148     21146     21154     21157     21148     21149     21151     21152
     21148     21149     21151     21153     21148     21149     21151     21163
     21149     21148     21146     21154     21149     21151     21163     21164
     21149     21151     21163     21165     21149     21151     21163     21166
     21150     21149     21151     21152     21150     21149     21151     21153
     21150     21149     21151     21163     21151     21163     21166     21167
     21151     21163     21166     21168     21151     21163     21166     21169
     21152     21151     21163     21164     21152     21151     21163     21165
     21152     21151     21163     21166     21153     21151     21163     21164
     21153     21151     21163     21165     21153     21151     21163     21166
     21154     21157     21158     21159     21154     21157     21158     21160
     21155     21154     21157     21158     21156     21154     21157     21158
     21157     21158     21160     21161     21157     21158     21160     21162
     21157     21158     21160     21204     21158     21160     21204     21205
     21158     21160     21204     21206     21158     21160     21204     21207
     21159     21158     21160     21161     21159     21158     21160     21162
     21159     21158     21160     21204     21160     21204     21207     21208
     21160     21204     21207     21209     21160     21204     21207     21210
     21161     21160     21204     21205     21161     21160     21204     21206
     21161     21160     21204     21207     21162     21160     21204     21205
     21162     21160     21204     21206     21162     21160     21204     21207
     21163     21166     21169     21170     21163     21166     21169     21171
     21163     21166     21169     21172     21164     21163     21166     21167
     21164     21163     21166     21168     21164     21163     21166     21169
     21165     21163     21166     21167     21165     21163     21166     21168
     21165     21163     21166     21169     21166     21169     21172     21173
     21166     21169     21172     21174     21166     21169     21172     21175
     21167     21166     21169     21170     21167     21166     21169     21171
     21167     21166     21169     21172     21168     21166     21169     21170
     21168     21166     21169     21171     21168     21166     21169     21172
     21169     21172     21175     21176     21169     21172     21175     21177
     21169     21172     21175     21178     21170     21169     21172     21173
     21170     21169     21172     21174     21170     21169     21172     21175
     21171     21169     21172     21173     21171     21169     21172     21174
     21171     21169     21172     21175     21172     21175     21178     21179
     21172     21175     21178     21180     21172     21175     21178     21181
     21173     21172     21175     21176     21173     21172     21175     21177
     21173     21172     21175     21178     21174     21172     21175     21176
     21174     21172     21175     21177     21174     21172     21175     21178
     21175     21178     21181     21182     21175     21178     21181     21183
     21176     21175     21178     21179     21176     21175     21178     21180
     21176     21175     21178     21181     21177     21175     21178     21179
     21177     21175     21178     21180     21177     21175     21178     21181
     21178     21181     21183     21184     21178     21181     21183     21185
     21179     21178     21181     21182     21179     21178     21181     21183
     21180     21178     21181     21182     21180     21178     21181     21183
     21181     21183     21185     21186     21181     21183     21185     21187
     21181     21183     21185     21188     21182     21181     21183     21184
     21182     21181     21183     21185     21183     21185     21188     21189
     21183     21185     21188     21190     21183     21185     21188     21191
     21184     21183     21185     21186     21184     21183     21185     21187
     21184     21183     21185     21188     21185     21188     21191     21192
     21185     21188     21191     21193     21185     21188     21191     21194
     21186     21185     21188     21189     21186     21185     21188     21190
     21186     21185     21188     21191     21187     21185     21188     21189
     21187     21185     21188     21190     21187     21185     21188     21191
     21188     21191     21194     21195     21188     21191     21194     21196
     21188     21191     21194     21197     21189     21188     21191     21192
     21189     21188     21191     21193     21189     21188     21191     21194
     21190     21188     21191     21192     21190     21188     21191     21193
     21190     21188     21191     21194     21191     21194     21197     21198
     21191     21194     21197     21199     21191     21194     21197     21200
     21192     21191     21194     21195     21192     21191     21194     21196
     21192     21191     21194     21197     21193     21191     21194     21195
     21193     21191     21194     21196     21193     21191     21194     21197
     21194     21197     21200     21201     21194     21197     21200     21202
     21194     21197     21200     21203     21195     21194     21197     21198
     21195     21194     21197     21199     21195     21194     21197     21200
     21196     21194     21197     21198     21196     21194     21197     21199
     21196     21194     21197     21200     21198     21197     21200     21201
     21198     21197     21200     21202     21198     21197     21200     21203
     21199     21197     21200     21201     21199     21197     21200     21202
     21199     21197     21200     21203     21204     21207     21210     21211
     21204     21207     21210     21212     21204     21207     21210     21213
     21205     21204     21207     21208     21205     21204     21207     21209
     21205     21204     21207     21210     21206     21204     21207     21208
     21206     21204     21207     21209     21206     21204     21207     21210
     21207     21210     21213     21214     21207     21210     21213     21215
     21207     21210     21213     21216     21208     21207     21210     21211
     21208     21207     21210     21212     21208     21207     21210     21213
     21209     21207     21210     21211     21209     21207     21210     21212
     21209     21207     21210     21213     21210     21213     21216     21217
     21210     21213     21216     21218     21210     21213     21216     21219
     21211     21210     21213     21214     21211     21210     21213     21215
     21211     21210     21213     21216     21212     21210     21213     21214
     21212     21210     21213     21215     21212     21210     21213     21216
     21213     21216     21219     21220     21213     21216     21219     21221
     21213     21216     21219     21222     21214     21213     21216     21217
     21214     21213     21216     21218     21214     21213     21216     21219
     21215     21213     21216     21217     21215     21213     21216     21218
     21215     21213     21216     21219     21216     21219     21222     21223
     21216     21219     21222     21224     21216     21219     21222     21225
     21217     21216     21219     21220     21217     21216     21219     21221
     21217     21216     21219     21222     21218     21216     21219     21220
     21218     21216     21219     21221     21218     21216     21219     21222
     21219     21222     21225     21226     21219     21222     21225     21227
     21219     21222     21225     21228     21220     21219     21222     21223
     21220     21219     21222     21224     21220     21219     21222     21225
     21221     21219     21222     21223     21221     21219     21222     21224
     21221     21219     21222     21225     21222     21225     21228     21229
     21222     21225     21228     21230     21222     21225     21228     21231
     21223     21222     21225     21226     21223     21222     21225     21227
     21223     21222     21225     21228     21224     21222     21225     21226
     21224     21222     21225     21227     21224     21222     21225     21228
     21225     21228     21231     21232     21225     21228     21231     21233
     21225     21228     21231     21234     21226     21225     21228     21229
     21226     21225     21228     21230     21226     21225     21228     21231
     21227     21225     21228     21229     21227     21225     21228     21230
     21227     21225     21228     21231     21228     21231     21234     21235
     21228     21231     21234     21236     21228     21231     21234     21237
     21229     21228     21231     21232     21229     21228     21231     21233
     21229     21228     21231     21234     21230     21228     21231     21232
     21230     21228     21231     21233     21230     21228     21231     21234
     21231     21234     21237     21238     21231     21234     21237     21239
     21231     21234     21237     21240     21232     21231     21234     21235
     21232     21231     21234     21236     21232     21231     21234     21237
     21233     21231     21234     21235     21233     21231     21234     21236
     21233     21231     21234     21237     21234     21237     21240     21241
     21234     21237     21240     21242     21234     21237     21240     21243
     21235     21234     21237     21238     21235     21234     21237     21239
     21235     21234     21237     21240     21236     21234     21237     21238
     21236     21234     21237     21239     21236     21234     21237     21240
     21237     21240     21243     21244     21237     21240     21243     21245
     21237     21240     21243     21246     21238     21237     21240     21241
     21238     21237     21240     21242     21238     21237     21240     21243
     21239     21237     21240     21241     21239     21237     21240     21242
     21239     21237     21240     21243     21241     21240     21243     21244
     21241     21240     21243     21245     21241     21240     21243     21246
     21242     21240     21243     21244     21242     21240     21243     21245
     21242     21240     21243     21246     21247     21251     21254     21255
     21247     21251     21254     21256     21247     21251     21254     21261
     21248     21247     21251     21252     21248     21247     21251     21253
     21248     21247     21251     21254     21249     21247     21251     21252
     21249     21247     21251     21253     21249     21247     21251     21254
     21250     21247     21251     21252     21250     21247     21251     21253
     21250     21247     21251     21254     21251     21254     21261     21257
     21252     21251     21254     21255     21252     21251     21254     21256
     21252     21251     21254     21261     21253     21251     21254     21255
     21253     21251     21254     21256     21253     21251     21254     21261
     21254     21261     21257     21258     21254     21261     21257     21259
     21254     21261     21257     21260     21255     21254     21261     21257
     21256     21254     21261     21257     21257     21260     21262     21263
     21257     21260     21262     21264     21257     21260     21262     21265
     21258     21257     21260     21262     21259     21257     21260     21262
     21260     21262     21265     21266     21260     21262     21265     21267
     21260     21262     21265     21273     21261     21257     21260     21262
     21262     21265     21267     21268     21262     21265     21273     21274
     21262     21265     21273     21275     21262     21265     21273     21276
     21263     21262     21265     21266     21263     21262     21265     21267
     21263     21262     21265     21273     21264     21262     21265     21266
     21264     21262     21265     21267     21264     21262     21265     21273
     21265     21267     21268     21269     21265     21267     21268     21270
     21265     21273     21276     21277     21266     21265     21267     21268
     21266     21265     21273     21274     21266     21265     21273     21275
     21266     21265     21273     21276     21267     21265     21273     21274
     21267     21265     21273     21275     21267     21265     21273     21276
     21267     21268     21270     21271     21267     21268     21270     21272
     21267     21268     21270     21282     21268     21267     21265     21273
     21268     21270     21282     21283     21268     21270     21282     21284
     21268     21270     21282     21285     21269     21268     21270     21271
     21269     21268     21270     21272     21269     21268     21270     21282
     21270     21282     21285     21286     21270     21282     21285     21287
     21270     21282     21285     21288     21271     21270     21282     21283
     21271     21270     21282     21284     21271     21270     21282     21285
     21272     21270     21282     21283     21272     21270     21282     21284
     21272     21270     21282     21285     21273     21276     21277     21278
     21273     21276     21277     21279     21274     21273     21276     21277
     21275     21273     21276     21277     21276     21277     21279     21280
     21276     21277     21279     21281     21276     21277     21279     21326
     21277     21279     21326     21327     21277     21279     21326     21328
     21277     21279     21326     21329     21278     21277     21279     21280
     21278     21277     21279     21281     21278     21277     21279     21326
     21279     21326     21329     21330     21279     21326     21329     21331
     21279     21326     21329     21332     21280     21279     21326     21327
     21280     21279     21326     21328     21280     21279     21326     21329
     21281     21279     21326     21327     21281     21279     21326     21328
     21281     21279     21326     21329     21282     21285     21288     21289
     21282     21285     21288     21290     21282     21285     21288     21291
     21283     21282     21285     21286     21283     21282     21285     21287
     21283     21282     21285     21288     21284     21282     21285     21286
     21284     21282     21285     21287     21284     21282     21285     21288
     21285     21288     21291     21292     21285     21288     21291     21293
     21285     21288     21291     21294     21286     21285     21288     21289
     21286     21285     21288     21290     21286     21285     21288     21291
     21287     21285     21288     21289     21287     21285     21288     21290
     21287     21285     21288     21291     21288     21291     21294     21295
     21288     21291     21294     21296     21288     21291     21294     21297
     21289     21288     21291     21292     21289     21288     21291     21293
     21289     21288     21291     21294     21290     21288     21291     21292
     21290     21288     21291     21293     21290     21288     21291     21294
     21291     21294     21297     21298     21291     21294     21297     21299
     21291     21294     21297     21300     21292     21291     21294     21295
     21292     21291     21294     21296     21292     21291     21294     21297
     21293     21291     21294     21295     21293     21291     21294     21296
     21293     21291     21294     21297     21294     21297     21300     21301
     21294     21297     21300     21302     21294     21297     21300     21305
     21295     21294     21297     21298     21295     21294     21297     21299
     21295     21294     21297     21300     21296     21294     21297     21298
     21296     21294     21297     21299     21296     21294     21297     21300
     21297     21300     21302     21303     21297     21300     21302     21304
     21297     21300     21302     21305     21297     21300     21305     21302
     21297     21300     21305     21306     21297     21300     21305     21307
     21298     21297     21300     21301     21298     21297     21300     21302
     21298     21297     21300     21305     21299     21297     21300     21301
     21299     21297     21300     21302     21299     21297     21300     21305
     21300     21302     21305     21306     21300     21302     21305     21307
     21300     21305     21302     21303     21300     21305     21302     21304
     21300     21305     21307     21308     21300     21305     21307     21309
     21300     21305     21307     21310     21301     21300     21302     21303
     21301     21300     21302     21304     21301     21300     21302     21305
     21301     21300     21305     21302     21301     21300     21305     21306
     21301     21300     21305     21307     21302     21300     21305     21306
     21302     21300     21305     21307     21302     21305     21307     21308
     21302     21305     21307     21309     21302     21305     21307     21310
     21303     21302     21300     21305     21303     21302     21305     21306
     21303     21302     21305     21307     21304     21302     21300     21305
     21304     21302     21305     21306     21304     21302     21305     21307
     21305     21307     21310     21311     21305     21307     21310     21312
     21305     21307     21310     21313     21306     21305     21307     21308
     21306     21305     21307     21309     21306     21305     21307     21310
     21307     21310     21313     21314     21307     21310     21313     21315
     21307     21310     21313     21316     21308     21307     21310     21311
     21308     21307     21310     21312     21308     21307     21310     21313
     21309     21307     21310     21311     21309     21307     21310     21312
     21309     21307     21310     21313     21310     21313     21316     21317
     21310     21313     21316     21318     21310     21313     21316     21319
     21311     21310     21313     21314     21311     21310     21313     21315
     21311     21310     21313     21316     21312     21310     21313     21314
     21312     21310     21313     21315     21312     21310     21313     21316
     21313     21316     21319     21320     21313     21316     21319     21321
     21313     21316     21319     21322     21314     21313     21316     21317
     21314     21313     21316     21318     21314     21313     21316     21319
     21315     21313     21316     21317     21315     21313     21316     21318
     21315     21313     21316     21319     21316     21319     21322     21323
     21316     21319     21322     21324     21316     21319     21322     21325
     21317     21316     21319     21320     21317     21316     21319     21321
     21317     21316     21319     21322     21318     21316     21319     21320
     21318     21316     21319     21321     21318     21316     21319     21322
     21320     21319     21322     21323     21320     21319     21322     21324
     21320     21319     21322     21325     21321     21319     21322     21323
     21321     21319     21322     21324     21321     21319     21322     21325
     21326     21329     21332     21333     21326     21329     21332     21334
     21326     21329     21332     21335     21327     21326     21329     21330
     21327     21326     21329     21331     21327     21326     21329     21332
     21328     21326     21329     21330     21328     21326     21329     21331
     21328     21326     21329     21332     21329     21332     21335     21336
     21329     21332     21335     21337     21329     21332     21335     21338
     21330     21329     21332     21333     21330     21329     21332     21334
     21330     21329     21332     21335     21331     21329     21332     21333
     21331     21329     21332     21334     21331     21329     21332     21335
     21332     21335     21338     21339     21332     21335     21338     21340
     21332     21335     21338     21341     21333     21332     21335     21336
     21333     21332     21335     21337     21333     21332     21335     21338
     21334     21332     21335     21336     21334     21332     21335     21337
     21334     21332     21335     21338     21335     21338     21341     21342
     21335     21338     21341     21343     21335     21338     21341     21344
     21336     21335     21338     21339     21336     21335     21338     21340
     21336     21335     21338     21341     21337     21335     21338     21339
     21337     21335     21338     21340     21337     21335     21338     21341
     21338     21341     21344     21345     21338     21341     21344     21346
     21338     21341     21344     21347     21339     21338     21341     21342
     21339     21338     21341     21343     21339     21338     21341     21344
     21340     21338     21341     21342     21340     21338     21341     21343
     21340     21338     21341     21344     21341     21344     21347     21348
     21341     21344     21347     21349     21341     21344     21347     21350
     21342     21341     21344     21345     21342     21341     21344     21346
     21342     21341     21344     21347     21343     21341     21344     21345
     21343     21341     21344     21346     21343     21341     21344     21347
     21344     21347     21350     21351     21344     21347     21350     21352
     21344     21347     21350     21353     21345     21344     21347     21348
     21345     21344     21347     21349     21345     21344     21347     21350
     21346     21344     21347     21348     21346     21344     21347     21349
     21346     21344     21347     21350     21347     21350     21353     21354
     21347     21350     21353     21355     21347     21350     21353     21356
     21348     21347     21350     21351     21348     21347     21350     21352
     21348     21347     21350     21353     21349     21347     21350     21351
     21349     21347     21350     21352     21349     21347     21350     21353
     21350     21353     21356     21357     21350     21353     21356     21358
     21350     21353     21356     21359     21351     21350     21353     21354
     21351     21350     21353     21355     21351     21350     21353     21356
     21352     21350     21353     21354     21352     21350     21353     21355
     21352     21350     21353     21356     21353     21356     21359     21360
     21353     21356     21359     21361     21353     21356     21359     21362
     21354     21353     21356     21357     21354     21353     21356     21358
     21354     21353     21356     21359     21355     21353     21356     21357
     21355     21353     21356     21358     21355     21353     21356     21359
     21356     21359     21362     21363     21356     21359     21362     21364
     21356     21359     21362     21365     21357     21356     21359     21360
     21357     21356     21359     21361     21357     21356     21359     21362
     21358     21356     21359     21360     21358     21356     21359     21361
     21358     21356     21359     21362     21359     21362     21365     21366
     21359     21362     21365     21367     21359     21362     21365     21368
     21360     21359     21362     21363     21360     21359     21362     21364
     21360     21359     21362     21365     21361     21359     21362     21363
     21361     21359     21362     21364     21361     21359     21362     21365
     21363     21362     21365     21366     21363     21362     21365     21367
     21363     21362     21365     21368     21364     21362     21365     21366
     21364     21362     21365     21367     21364     21362     21365     21368
     21369     21373     21376     21377     21369     21373     21376     21378
     21369     21373     21376     21383     21370     21369     21373     21374
     21370     21369     21373     21375     21370     21369     21373     21376
     21371     21369     21373     21374     21371     21369     21373     21375
     21371     21369     21373     21376     21372     21369     21373     21374
     21372     21369     21373     21375     21372     21369     21373     21376
     21373     21376     21383     21379     21374     21373     21376     21377
     21374     21373     21376     21378     21374     21373     21376     21383
     21375     21373     21376     21377     21375     21373     21376     21378
     21375     21373     21376     21383     21376     21383     21379     21380
     21376     21383     21379     21381     21376     21383     21379     21382
     21377     21376     21383     21379     21378     21376     21383     21379
     21379     21382     21384     21385     21379     21382     21384     21386
     21379     21382     21384     21387     21380     21379     21382     21384
     21381     21379     21382     21384     21382     21384     21387     21388
     21382     21384     21387     21389     21382     21384     21387     21395
     21383     21379     21382     21384     21384     21387     21389     21390
     21384     21387     21395     21396     21384     21387     21395     21397
     21384     21387     21395     21398     21385     21384     21387     21388
     21385     21384     21387     21389     21385     21384     21387     21395
     21386     21384     21387     21388     21386     21384     21387     21389
     21386     21384     21387     21395     21387     21389     21390     21391
     21387     21389     21390     21392     21387     21395     21398     21399
     21388     21387     21389     21390     21388     21387     21395     21396
     21388     21387     21395     21397     21388     21387     21395     21398
     21389     21387     21395     21396     21389     21387     21395     21397
     21389     21387     21395     21398     21389     21390     21392     21393
     21389     21390     21392     21394     21389     21390     21392     21404
     21390     21389     21387     21395     21390     21392     21404     21405
     21390     21392     21404     21406     21390     21392     21404     21407
     21391     21390     21392     21393     21391     21390     21392     21394
     21391     21390     21392     21404     21392     21404     21407     21408
     21392     21404     21407     21409     21392     21404     21407     21410
     21393     21392     21404     21405     21393     21392     21404     21406
     21393     21392     21404     21407     21394     21392     21404     21405
     21394     21392     21404     21406     21394     21392     21404     21407
     21395     21398     21399     21400     21395     21398     21399     21401
     21396     21395     21398     21399     21397     21395     21398     21399
     21398     21399     21401     21402     21398     21399     21401     21403
     21398     21399     21401     21448     21399     21401     21448     21449
     21399     21401     21448     21450     21399     21401     21448     21451
     21400     21399     21401     21402     21400     21399     21401     21403
     21400     21399     21401     21448     21401     21448     21451     21452
     21401     21448     21451     21453     21401     21448     21451     21454
     21402     21401     21448     21449     21402     21401     21448     21450
     21402     21401     21448     21451     21403     21401     21448     21449
     21403     21401     21448     21450     21403     21401     21448     21451
     21404     21407     21410     21411     21404     21407     21410     21412
     21404     21407     21410     21413     21405     21404     21407     21408
     21405     21404     21407     21409     21405     21404     21407     21410
     21406     21404     21407     21408     21406     21404     21407     21409
     21406     21404     21407     21410     21407     21410     21413     21414
     21407     21410     21413     21415     21407     21410     21413     21416
     21408     21407     21410     21411     21408     21407     21410     21412
     21408     21407     21410     21413     21409     21407     21410     21411
     21409     21407     21410     21412     21409     21407     21410     21413
     21410     21413     21416     21417     21410     21413     21416     21418
     21410     21413     21416     21419     21411     21410     21413     21414
     21411     21410     21413     21415     21411     21410     21413     21416
     21412     21410     21413     21414     21412     21410     21413     21415
     21412     21410     21413     21416     21413     21416     21419     21420
     21413     21416     21419     21421     21413     21416     21419     21422
     21414     21413     21416     21417     21414     21413     21416     21418
     21414     21413     21416     21419     21415     21413     21416     21417
     21415     21413     21416     21418     21415     21413     21416     21419
     21416     21419     21422     21423     21416     21419     21422     21424
     21416     21419     21422     21427     21417     21416     21419     21420
     21417     21416     21419     21421     21417     21416     21419     21422
     21418     21416     21419     21420     21418     21416     21419     21421
     21418     21416     21419     21422     21419     21422     21424     21425
     21419     21422     21424     21426     21419     21422     21424     21427
     21419     21422     21427     21424     21419     21422     21427     21428
     21419     21422     21427     21429     21420     21419     21422     21423
     21420     21419     21422     21424     21420     21419     21422     21427
     21421     21419     21422     21423     21421     21419     21422     21424
     21421     21419     21422     21427     21422     21424     21427     21428
     21422     21424     21427     21429     21422     21427     21424     21425
     21422     21427     21424     21426     21422     21427     21429     21430
     21422     21427     21429     21431     21422     21427     21429     21432
     21423     21422     21424     21425     21423     21422     21424     21426
     21423     21422     21424     21427     21423     21422     21427     21424
     21423     21422     21427     21428     21423     21422     21427     21429
     21424     21422     21427     21428     21424     21422     21427     21429
     21424     21427     21429     21430     21424     21427     21429     21431
     21424     21427     21429     21432     21425     21424     21422     21427
     21425     21424     21427     21428     21425     21424     21427     21429
     21426     21424     21422     21427     21426     21424     21427     21428
     21426     21424     21427     21429     21427     21429     21432     21433
     21427     21429     21432     21434     21427     21429     21432     21435
     21428     21427     21429     21430     21428     21427     21429     21431
     21428     21427     21429     21432     21429     21432     21435     21436
     21429     21432     21435     21437     21429     21432     21435     21438
     21430     21429     21432     21433     21430     21429     21432     21434
     21430     21429     21432     21435     21431     21429     21432     21433
     21431     21429     21432     21434     21431     21429     21432     21435
     21432     21435     21438     21439     21432     21435     21438     21440
     21432     21435     21438     21441     21433     21432     21435     21436
     21433     21432     21435     21437     21433     21432     21435     21438
     21434     21432     21435     21436     21434     21432     21435     21437
     21434     21432     21435     21438     21435     21438     21441     21442
     21435     21438     21441     21443     21435     21438     21441     21444
     21436     21435     21438     21439     21436     21435     21438     21440
     21436     21435     21438     21441     21437     21435     21438     21439
     21437     21435     21438     21440     21437     21435     21438     21441
     21438     21441     21444     21445     21438     21441     21444     21446
     21438     21441     21444     21447     21439     21438     21441     21442
     21439     21438     21441     21443     21439     21438     21441     21444
     21440     21438     21441     21442     21440     21438     21441     21443
     21440     21438     21441     21444     21442     21441     21444     21445
     21442     21441     21444     21446     21442     21441     21444     21447
     21443     21441     21444     21445     21443     21441     21444     21446
     21443     21441     21444     21447     21448     21451     21454     21455
     21448     21451     21454     21456     21448     21451     21454     21457
     21449     21448     21451     21452     21449     21448     21451     21453
     21449     21448     21451     21454     21450     21448     21451     21452
     21450     21448     21451     21453     21450     21448     21451     21454
     21451     21454     21457     21458     21451     21454     21457     21459
     21451     21454     21457     21460     21452     21451     21454     21455
     21452     21451     21454     21456     21452     21451     21454     21457
     21453     21451     21454     21455     21453     21451     21454     21456
     21453     21451     21454     21457     21454     21457     21460     21461
     21454     21457     21460     21462     21454     21457     21460     21463
     21455     21454     21457     21458     21455     21454     21457     21459
     21455     21454     21457     21460     21456     21454     21457     21458
     21456     21454     21457     21459     21456     21454     21457     21460
     21457     21460     21463     21464     21457     21460     21463     21465
     21457     21460     21463     21466     21458     21457     21460     21461
     21458     21457     21460     21462     21458     21457     21460     21463
     21459     21457     21460     21461     21459     21457     21460     21462
     21459     21457     21460     21463     21460     21463     21466     21467
     21460     21463     21466     21468     21460     21463     21466     21469
     21461     21460     21463     21464     21461     21460     21463     21465
     21461     21460     21463     21466     21462     21460     21463     21464
     21462     21460     21463     21465     21462     21460     21463     21466
     21463     21466     21469     21470     21463     21466     21469     21471
     21463     21466     21469     21472     21464     21463     21466     21467
     21464     21463     21466     21468     21464     21463     21466     21469
     21465     21463     21466     21467     21465     21463     21466     21468
     21465     21463     21466     21469     21466     21469     21472     21473
     21466     21469     21472     21474     21466     21469     21472     21475
     21467     21466     21469     21470     21467     21466     21469     21471
     21467     21466     21469     21472     21468     21466     21469     21470
     21468     21466     21469     21471     21468     21466     21469     21472
     21469     21472     21475     21476     21469     21472     21475     21477
     21469     21472     21475     21478     21470     21469     21472     21473
     21470     21469     21472     21474     21470     21469     21472     21475
     21471     21469     21472     21473     21471     21469     21472     21474
     21471     21469     21472     21475     21472     21475     21478     21479
     21472     21475     21478     21480     21472     21475     21478     21481
     21473     21472     21475     21476     21473     21472     21475     21477
     21473     21472     21475     21478     21474     21472     21475     21476
     21474     21472     21475     21477     21474     21472     21475     21478
     21475     21478     21481     21482     21475     21478     21481     21483
     21475     21478     21481     21484     21476     21475     21478     21479
     21476     21475     21478     21480     21476     21475     21478     21481
     21477     21475     21478     21479     21477     21475     21478     21480
     21477     21475     21478     21481     21478     21481     21484     21485
     21478     21481     21484     21486     21478     21481     21484     21487
     21479     21478     21481     21482     21479     21478     21481     21483
     21479     21478     21481     21484     21480     21478     21481     21482
     21480     21478     21481     21483     21480     21478     21481     21484
     21481     21484     21487     21488     21481     21484     21487     21489
     21481     21484     21487     21490     21482     21481     21484     21485
     21482     21481     21484     21486     21482     21481     21484     21487
     21483     21481     21484     21485     21483     21481     21484     21486
     21483     21481     21484     21487     21485     21484     21487     21488
     21485     21484     21487     21489     21485     21484     21487     21490
     21486     21484     21487     21488     21486     21484     21487     21489
     21486     21484     21487     21490     21491     21495     21498     21499
     21491     21495     21498     21500     21491     21495     21498     21505
     21492     21491     21495     21496     21492     21491     21495     21497
     21492     21491     21495     21498     21493     21491     21495     21496
     21493     21491     21495     21497     21493     21491     21495     21498
     21494     21491     21495     21496     21494     21491     21495     21497
     21494     21491     21495     21498     21495     21498     21505     21501
     21496     21495     21498     21499     21496     21495     21498     21500
     21496     21495     21498     21505     21497     21495     21498     21499
     21497     21495     21498     21500     21497     21495     21498     21505
     21498     21505     21501     21502     21498     21505     21501     21503
     21498     21505     21501     21504     21499     21498     21505     21501
     21500     21498     21505     21501     21501     21504     21506     21507
     21501     21504     21506     21508     21501     21504     21506     21509
     21502     21501     21504     21506     21503     21501     21504     21506
     21504     21506     21509     21510     21504     21506     21509     21511
     21504     21506     21509     21517     21505     21501     21504     21506
     21506     21509     21511     21512     21506     21509     21517     21518
     21506     21509     21517     21519     21506     21509     21517     21520
     21507     21506     21509     21510     21507     21506     21509     21511
     21507     21506     21509     21517     21508     21506     21509     21510
     21508     21506     21509     21511     21508     21506     21509     21517
     21509     21511     21512     21513     21509     21511     21512     21514
     21509     21517     21520     21521     21510     21509     21511     21512
     21510     21509     21517     21518     21510     21509     21517     21519
     21510     21509     21517     21520     21511     21509     21517     21518
     21511     21509     21517     21519     21511     21509     21517     21520
     21511     21512     21514     21515     21511     21512     21514     21516
     21511     21512     21514     21526     21512     21511     21509     21517
     21512     21514     21526     21527     21512     21514     21526     21528
     21512     21514     21526     21529     21513     21512     21514     21515
     21513     21512     21514     21516     21513     21512     21514     21526
     21514     21526     21529     21530     21514     21526     21529     21531
     21514     21526     21529     21532     21515     21514     21526     21527
     21515     21514     21526     21528     21515     21514     21526     21529
     21516     21514     21526     21527     21516     21514     21526     21528
     21516     21514     21526     21529     21517     21520     21521     21522
     21517     21520     21521     21523     21518     21517     21520     21521
     21519     21517     21520     21521     21520     21521     21523     21524
     21520     21521     21523     21525     21520     21521     21523     21573
     21521     21523     21573     21574     21521     21523     21573     21575
     21521     21523     21573     21576     21522     21521     21523     21524
     21522     21521     21523     21525     21522     21521     21523     21573
     21523     21573     21576     21577     21523     21573     21576     21578
     21523     21573     21576     21579     21524     21523     21573     21574
     21524     21523     21573     21575     21524     21523     21573     21576
     21525     21523     21573     21574     21525     21523     21573     21575
     21525     21523     21573     21576     21526     21529     21532     21533
     21526     21529     21532     21534     21526     21529     21532     21535
     21527     21526     21529     21530     21527     21526     21529     21531
     21527     21526     21529     21532     21528     21526     21529     21530
     21528     21526     21529     21531     21528     21526     21529     21532
     21529     21532     21535     21536     21529     21532     21535     21537
     21529     21532     21535     21538     21530     21529     21532     21533
     21530     21529     21532     21534     21530     21529     21532     21535
     21531     21529     21532     21533     21531     21529     21532     21534
     21531     21529     21532     21535     21532     21535     21538     21539
     21532     21535     21538     21540     21532     21535     21538     21541
     21533     21532     21535     21536     21533     21532     21535     21537
     21533     21532     21535     21538     21534     21532     21535     21536
     21534     21532     21535     21537     21534     21532     21535     21538
     21535     21538     21541     21542     21535     21538     21541     21543
     21535     21538     21541     21544     21536     21535     21538     21539
     21536     21535     21538     21540     21536     21535     21538     21541
     21537     21535     21538     21539     21537     21535     21538     21540
     21537     21535     21538     21541     21538     21541     21544     21545
     21538     21541     21544     21546     21539     21538     21541     21542
     21539     21538     21541     21543     21539     21538     21541     21544
     21540     21538     21541     21542     21540     21538     21541     21543
     21540     21538     21541     21544     21541     21544     21546     21547
     21541     21544     21546     21548     21542     21541     21544     21545
     21542     21541     21544     21546     21543     21541     21544     21545
     21543     21541     21544     21546     21544     21546     21548     21549
     21544     21546     21548     21550     21544     21546     21548     21551
     21545     21544     21546     21547     21545     21544     21546     21548
     21546     21548     21551     21552     21546     21548     21551     21553
     21546     21548     21551     21554     21547     21546     21548     21549
     21547     21546     21548     21550     21547     21546     21548     21551
     21548     21551     21554     21555     21548     21551     21554     21556
     21548     21551     21554     21557     21549     21548     21551     21552
     21549     21548     21551     21553     21549     21548     21551     21554
     21550     21548     21551     21552     21550     21548     21551     21553
     21550     21548     21551     21554     21551     21554     21557     21558
     21551     21554     21557     21559     21551     21554     21557     21560
     21552     21551     21554     21555     21552     21551     21554     21556
     21552     21551     21554     21557     21553     21551     21554     21555
     21553     21551     21554     21556     21553     21551     21554     21557
     21554     21557     21560     21561     21554     21557     21560     21562
     21554     21557     21560     21563     21555     21554     21557     21558
     21555     21554     21557     21559     21555     21554     21557     21560
     21556     21554     21557     21558     21556     21554     21557     21559
     21556     21554     21557     21560     21557     21560     21563     21564
     21557     21560     21563     21565     21557     21560     21563     21566
     21558     21557     21560     21561     21558     21557     21560     21562
     21558     21557     21560     21563     21559     21557     21560     21561
     21559     21557     21560     21562     21559     21557     21560     21563
     21560     21563     21566     21567     21560     21563     21566     21568
     21560     21563     21566     21569     21561     21560     21563     21564
     21561     21560     21563     21565     21561     21560     21563     21566
     21562     21560     21563     21564     21562     21560     21563     21565
     21562     21560     21563     21566     21563     21566     21569     21570
     21563     21566     21569     21571     21563     21566     21569     21572
     21564     21563     21566     21567     21564     21563     21566     21568
     21564     21563     21566     21569     21565     21563     21566     21567
     21565     21563     21566     21568     21565     21563     21566     21569
     21567     21566     21569     21570     21567     21566     21569     21571
     21567     21566     21569     21572     21568     21566     21569     21570
     21568     21566     21569     21571     21568     21566     21569     21572
     21573     21576     21579     21580     21573     21576     21579     21581
     21573     21576     21579     21582     21574     21573     21576     21577
     21574     21573     21576     21578     21574     21573     21576     21579
     21575     21573     21576     21577     21575     21573     21576     21578
     21575     21573     21576     21579     21576     21579     21582     21583
     21576     21579     21582     21584     21576     21579     21582     21585
     21577     21576     21579     21580     21577     21576     21579     21581
     21577     21576     21579     21582     21578     21576     21579     21580
     21578     21576     21579     21581     21578     21576     21579     21582
     21579     21582     21585     21586     21579     21582     21585     21587
     21579     21582     21585     21588     21580     21579     21582     21583
     21580     21579     21582     21584     21580     21579     21582     21585
     21581     21579     21582     21583     21581     21579     21582     21584
     21581     21579     21582     21585     21582     21585     21588     21589
     21582     21585     21588     21590     21582     21585     21588     21591
     21583     21582     21585     21586     21583     21582     21585     21587
     21583     21582     21585     21588     21584     21582     21585     21586
     21584     21582     21585     21587     21584     21582     21585     21588
     21585     21588     21591     21592     21585     21588     21591     21593
     21585     21588     21591     21594     21586     21585     21588     21589
     21586     21585     21588     21590     21586     21585     21588     21591
     21587     21585     21588     21589     21587     21585     21588     21590
     21587     21585     21588     21591     21588     21591     21594     21595
     21588     21591     21594     21596     21588     21591     21594     21597
     21589     21588     21591     21592     21589     21588     21591     21593
     21589     21588     21591     21594     21590     21588     21591     21592
     21590     21588     21591     21593     21590     21588     21591     21594
     21591     21594     21597     21598     21591     21594     21597     21599
     21591     21594     21597     21600     21592     21591     21594     21595
     21592     21591     21594     21596     21592     21591     21594     21597
     21593     21591     21594     21595     21593     21591     21594     21596
     21593     21591     21594     21597     21594     21597     21600     21601
     21594     21597     21600     21602     21594     21597     21600     21603
     21595     21594     21597     21598     21595     21594     21597     21599
     21595     21594     21597     21600     21596     21594     21597     21598
     21596     21594     21597     21599     21596     21594     21597     21600
     21597     21600     21603     21604     21597     21600     21603     21605
     21597     21600     21603     21606     21598     21597     21600     21601
     21598     21597     21600     21602     21598     21597     21600     21603
     21599     21597     21600     21601     21599     21597     21600     21602
     21599     21597     21600     21603     21600     21603     21606     21607
     21600     21603     21606     21608     21600     21603     21606     21609
     21601     21600     21603     21604     21601     21600     21603     21605
     21601     21600     21603     21606     21602     21600     21603     21604
     21602     21600     21603     21605     21602     21600     21603     21606
     21603     21606     21609     21610     21603     21606     21609     21611
     21603     21606     21609     21612     21604     21603     21606     21607
     21604     21603     21606     21608     21604     21603     21606     21609
     21605     21603     21606     21607     21605     21603     21606     21608
     21605     21603     21606     21609     21606     21609     21612     21613
     21606     21609     21612     21614     21606     21609     21612     21615
     21607     21606     21609     21610     21607     21606     21609     21611
     21607     21606     21609     21612     21608     21606     21609     21610
     21608     21606     21609     21611     21608     21606     21609     21612
     21610     21609     21612     21613     21610     21609     21612     21614
     21610     21609     21612     21615     21611     21609     21612     21613
     21611     21609     21612     21614     21611     21609     21612     21615
     21616     21620     21623     21624     21616     21620     21623     21625
     21616     21620     21623     21630     21617     21616     21620     21621
     21617     21616     21620     21622     21617     21616     21620     21623
     21618     21616     21620     21621     21618     21616     21620     21622
     21618     21616     21620     21623     21619     21616     21620     21621
     21619     21616     21620     21622     21619     21616     21620     21623
     21620     21623     21630     21626     21621     21620     21623     21624
     21621     21620     21623     21625     21621     21620     21623     21630
     21622     21620     21623     21624     21622     21620     21623     21625
     21622     21620     21623     21630     21623     21630     21626     21627
     21623     21630     21626     21628     21623     21630     21626     21629
     21624     21623     21630     21626     21625     21623     21630     21626
     21626     21629     21631     21632     21626     21629     21631     21633
     21626     21629     21631     21634     21627     21626     21629     21631
     21628     21626     21629     21631     21629     21631     21634     21635
     21629     21631     21634     21636     21629     21631     21634     21642
     21630     21626     21629     21631     21631     21634     21636     21637
     21631     21634     21642     21643     21631     21634     21642     21644
     21631     21634     21642     21645     21632     21631     21634     21635
     21632     21631     21634     21636     21632     21631     21634     21642
     21633     21631     21634     21635     21633     21631     21634     21636
     21633     21631     21634     21642     21634     21636     21637     21638
     21634     21636     21637     21639     21634     21642     21645     21646
     21635     21634     21636     21637     21635     21634     21642     21643
     21635     21634     21642     21644     21635     21634     21642     21645
     21636     21634     21642     21643     21636     21634     21642     21644
     21636     21634     21642     21645     21636     21637     21639     21640
     21636     21637     21639     21641     21636     21637     21639     21651
     21637     21636     21634     21642     21637     21639     21651     21652
     21637     21639     21651     21653     21637     21639     21651     21654
     21638     21637     21639     21640     21638     21637     21639     21641
     21638     21637     21639     21651     21639     21651     21654     21655
     21639     21651     21654     21656     21639     21651     21654     21657
     21640     21639     21651     21652     21640     21639     21651     21653
     21640     21639     21651     21654     21641     21639     21651     21652
     21641     21639     21651     21653     21641     21639     21651     21654
     21642     21645     21646     21647     21642     21645     21646     21648
     21643     21642     21645     21646     21644     21642     21645     21646
     21645     21646     21648     21649     21645     21646     21648     21650
     21645     21646     21648     21698     21646     21648     21698     21699
     21646     21648     21698     21700     21646     21648     21698     21701
     21647     21646     21648     21649     21647     21646     21648     21650
     21647     21646     21648     21698     21648     21698     21701     21702
     21648     21698     21701     21703     21648     21698     21701     21704
     21649     21648     21698     21699     21649     21648     21698     21700
     21649     21648     21698     21701     21650     21648     21698     21699
     21650     21648     21698     21700     21650     21648     21698     21701
     21651     21654     21657     21658     21651     21654     21657     21659
     21651     21654     21657     21660     21652     21651     21654     21655
     21652     21651     21654     21656     21652     21651     21654     21657
     21653     21651     21654     21655     21653     21651     21654     21656
     21653     21651     21654     21657     21654     21657     21660     21661
     21654     21657     21660     21662     21654     21657     21660     21663
     21655     21654     21657     21658     21655     21654     21657     21659
     21655     21654     21657     21660     21656     21654     21657     21658
     21656     21654     21657     21659     21656     21654     21657     21660
     21657     21660     21663     21664     21657     21660     21663     21665
     21657     21660     21663     21666     21658     21657     21660     21661
     21658     21657     21660     21662     21658     21657     21660     21663
     21659     21657     21660     21661     21659     21657     21660     21662
     21659     21657     21660     21663     21660     21663     21666     21667
     21660     21663     21666     21668     21660     21663     21666     21669
     21661     21660     21663     21664     21661     21660     21663     21665
     21661     21660     21663     21666     21662     21660     21663     21664
     21662     21660     21663     21665     21662     21660     21663     21666
     21663     21666     21669     21670     21663     21666     21669     21671
     21664     21663     21666     21667     21664     21663     21666     21668
     21664     21663     21666     21669     21665     21663     21666     21667
     21665     21663     21666     21668     21665     21663     21666     21669
     21666     21669     21671     21672     21666     21669     21671     21673
     21667     21666     21669     21670     21667     21666     21669     21671
     21668     21666     21669     21670     21668     21666     21669     21671
     21669     21671     21673     21674     21669     21671     21673     21675
     21669     21671     21673     21676     21670     21669     21671     21672
     21670     21669     21671     21673     21671     21673     21676     21677
     21671     21673     21676     21678     21671     21673     21676     21679
     21672     21671     21673     21674     21672     21671     21673     21675
     21672     21671     21673     21676     21673     21676     21679     21680
     21673     21676     21679     21681     21673     21676     21679     21682
     21674     21673     21676     21677     21674     21673     21676     21678
     21674     21673     21676     21679     21675     21673     21676     21677
     21675     21673     21676     21678     21675     21673     21676     21679
     21676     21679     21682     21683     21676     21679     21682     21684
     21676     21679     21682     21685     21677     21676     21679     21680
     21677     21676     21679     21681     21677     21676     21679     21682
     21678     21676     21679     21680     21678     21676     21679     21681
     21678     21676     21679     21682     21679     21682     21685     21686
     21679     21682     21685     21687     21679     21682     21685     21688
     21680     21679     21682     21683     21680     21679     21682     21684
     21680     21679     21682     21685     21681     21679     21682     21683
     21681     21679     21682     21684     21681     21679     21682     21685
     21682     21685     21688     21689     21682     21685     21688     21690
     21682     21685     21688     21691     21683     21682     21685     21686
     21683     21682     21685     21687     21683     21682     21685     21688
     21684     21682     21685     21686     21684     21682     21685     21687
     21684     21682     21685     21688     21685     21688     21691     21692
     21685     21688     21691     21693     21685     21688     21691     21694
     21686     21685     21688     21689     21686     21685     21688     21690
     21686     21685     21688     21691     21687     21685     21688     21689
     21687     21685     21688     21690     21687     21685     21688     21691
     21688     21691     21694     21695     21688     21691     21694     21696
     21688     21691     21694     21697     21689     21688     21691     21692
     21689     21688     21691     21693     21689     21688     21691     21694
     21690     21688     21691     21692     21690     21688     21691     21693
     21690     21688     21691     21694     21692     21691     21694     21695
     21692     21691     21694     21696     21692     21691     21694     21697
     21693     21691     21694     21695     21693     21691     21694     21696
     21693     21691     21694     21697     21698     21701     21704     21705
     21698     21701     21704     21706     21698     21701     21704     21707
     21699     21698     21701     21702     21699     21698     21701     21703
     21699     21698     21701     21704     21700     21698     21701     21702
     21700     21698     21701     21703     21700     21698     21701     21704
     21701     21704     21707     21708     21701     21704     21707     21709
     21701     21704     21707     21710     21702     21701     21704     21705
     21702     21701     21704     21706     21702     21701     21704     21707
     21703     21701     21704     21705     21703     21701     21704     21706
     21703     21701     21704     21707     21704     21707     21710     21711
     21704     21707     21710     21712     21704     21707     21710     21713
     21705     21704     21707     21708     21705     21704     21707     21709
     21705     21704     21707     21710     21706     21704     21707     21708
     21706     21704     21707     21709     21706     21704     21707     21710
     21707     21710     21713     21714     21707     21710     21713     21715
     21707     21710     21713     21716     21708     21707     21710     21711
     21708     21707     21710     21712     21708     21707     21710     21713
     21709     21707     21710     21711     21709     21707     21710     21712
     21709     21707     21710     21713     21710     21713     21716     21717
     21710     21713     21716     21718     21710     21713     21716     21719
     21711     21710     21713     21714     21711     21710     21713     21715
     21711     21710     21713     21716     21712     21710     21713     21714
     21712     21710     21713     21715     21712     21710     21713     21716
     21713     21716     21719     21720     21713     21716     21719     21721
     21713     21716     21719     21722     21714     21713     21716     21717
     21714     21713     21716     21718     21714     21713     21716     21719
     21715     21713     21716     21717     21715     21713     21716     21718
     21715     21713     21716     21719     21716     21719     21722     21723
     21716     21719     21722     21724     21716     21719     21722     21725
     21717     21716     21719     21720     21717     21716     21719     21721
     21717     21716     21719     21722     21718     21716     21719     21720
     21718     21716     21719     21721     21718     21716     21719     21722
     21719     21722     21725     21726     21719     21722     21725     21727
     21719     21722     21725     21728     21720     21719     21722     21723
     21720     21719     21722     21724     21720     21719     21722     21725
     21721     21719     21722     21723     21721     21719     21722     21724
     21721     21719     21722     21725     21722     21725     21728     21729
     21722     21725     21728     21730     21722     21725     21728     21731
     21723     21722     21725     21726     21723     21722     21725     21727
     21723     21722     21725     21728     21724     21722     21725     21726
     21724     21722     21725     21727     21724     21722     21725     21728
     21725     21728     21731     21732     21725     21728     21731     21733
     21725     21728     21731     21734     21726     21725     21728     21729
     21726     21725     21728     21730     21726     21725     21728     21731
     21727     21725     21728     21729     21727     21725     21728     21730
     21727     21725     21728     21731     21728     21731     21734     21735
     21728     21731     21734     21736     21728     21731     21734     21737
     21729     21728     21731     21732     21729     21728     21731     21733
     21729     21728     21731     21734     21730     21728     21731     21732
     21730     21728     21731     21733     21730     21728     21731     21734
     21731     21734     21737     21738     21731     21734     21737     21739
     21731     21734     21737     21740     21732     21731     21734     21735
     21732     21731     21734     21736     21732     21731     21734     21737
     21733     21731     21734     21735     21733     21731     21734     21736
     21733     21731     21734     21737     21735     21734     21737     21738
     21735     21734     21737     21739     21735     21734     21737     21740
     21736     21734     21737     21738     21736     21734     21737     21739
     21736     21734     21737     21740     21741     21745     21748     21749
     21741     21745     21748     21750     21741     21745     21748     21755
     21742     21741     21745     21746     21742     21741     21745     21747
     21742     21741     21745     21748     21743     21741     21745     21746
     21743     21741     21745     21747     21743     21741     21745     21748
     21744     21741     21745     21746     21744     21741     21745     21747
     21744     21741     21745     21748     21745     21748     21755     21751
     21746     21745     21748     21749     21746     21745     21748     21750
     21746     21745     21748     21755     21747     21745     21748     21749
     21747     21745     21748     21750     21747     21745     21748     21755
     21748     21755     21751     21752     21748     21755     21751     21753
     21748     21755     21751     21754     21749     21748     21755     21751
     21750     21748     21755     21751     21751     21754     21756     21757
     21751     21754     21756     21758     21751     21754     21756     21759
     21752     21751     21754     21756     21753     21751     21754     21756
     21754     21756     21759     21760     21754     21756     21759     21761
     21754     21756     21759     21767     21755     21751     21754     21756
     21756     21759     21761     21762     21756     21759     21767     21768
     21756     21759     21767     21769     21756     21759     21767     21770
     21757     21756     21759     21760     21757     21756     21759     21761
     21757     21756     21759     21767     21758     21756     21759     21760
     21758     21756     21759     21761     21758     21756     21759     21767
     21759     21761     21762     21763     21759     21761     21762     21764
     21759     21767     21770     21771     21760     21759     21761     21762
     21760     21759     21767     21768     21760     21759     21767     21769
     21760     21759     21767     21770     21761     21759     21767     21768
     21761     21759     21767     21769     21761     21759     21767     21770
     21761     21762     21764     21765     21761     21762     21764     21766
     21761     21762     21764     21776     21762     21761     21759     21767
     21762     21764     21776     21777     21762     21764     21776     21778
     21762     21764     21776     21779     21763     21762     21764     21765
     21763     21762     21764     21766     21763     21762     21764     21776
     21764     21776     21779     21780     21764     21776     21779     21781
     21764     21776     21779     21782     21765     21764     21776     21777
     21765     21764     21776     21778     21765     21764     21776     21779
     21766     21764     21776     21777     21766     21764     21776     21778
     21766     21764     21776     21779     21767     21770     21771     21772
     21767     21770     21771     21773     21768     21767     21770     21771
     21769     21767     21770     21771     21770     21771     21773     21774
     21770     21771     21773     21775     21770     21771     21773     21820
     21771     21773     21820     21821     21771     21773     21820     21822
     21771     21773     21820     21823     21772     21771     21773     21774
     21772     21771     21773     21775     21772     21771     21773     21820
     21773     21820     21823     21824     21773     21820     21823     21825
     21773     21820     21823     21826     21774     21773     21820     21821
     21774     21773     21820     21822     21774     21773     21820     21823
     21775     21773     21820     21821     21775     21773     21820     21822
     21775     21773     21820     21823     21776     21779     21782     21783
     21776     21779     21782     21784     21776     21779     21782     21785
     21777     21776     21779     21780     21777     21776     21779     21781
     21777     21776     21779     21782     21778     21776     21779     21780
     21778     21776     21779     21781     21778     21776     21779     21782
     21779     21782     21785     21786     21779     21782     21785     21787
     21779     21782     21785     21788     21780     21779     21782     21783
     21780     21779     21782     21784     21780     21779     21782     21785
     21781     21779     21782     21783     21781     21779     21782     21784
     21781     21779     21782     21785     21782     21785     21788     21789
     21782     21785     21788     21790     21782     21785     21788     21791
     21783     21782     21785     21786     21783     21782     21785     21787
     21783     21782     21785     21788     21784     21782     21785     21786
     21784     21782     21785     21787     21784     21782     21785     21788
     21785     21788     21791     21792     21785     21788     21791     21793
     21785     21788     21791     21794     21786     21785     21788     21789
     21786     21785     21788     21790     21786     21785     21788     21791
     21787     21785     21788     21789     21787     21785     21788     21790
     21787     21785     21788     21791     21788     21791     21794     21795
     21788     21791     21794     21796     21788     21791     21794     21799
     21789     21788     21791     21792     21789     21788     21791     21793
     21789     21788     21791     21794     21790     21788     21791     21792
     21790     21788     21791     21793     21790     21788     21791     21794
     21791     21794     21796     21797     21791     21794     21796     21798
     21791     21794     21796     21799     21791     21794     21799     21796
     21791     21794     21799     21800     21791     21794     21799     21801
     21792     21791     21794     21795     21792     21791     21794     21796
     21792     21791     21794     21799     21793     21791     21794     21795
     21793     21791     21794     21796     21793     21791     21794     21799
     21794     21796     21799     21800     21794     21796     21799     21801
     21794     21799     21796     21797     21794     21799     21796     21798
     21794     21799     21801     21802     21794     21799     21801     21803
     21794     21799     21801     21804     21795     21794     21796     21797
     21795     21794     21796     21798     21795     21794     21796     21799
     21795     21794     21799     21796     21795     21794     21799     21800
     21795     21794     21799     21801     21796     21794     21799     21800
     21796     21794     21799     21801     21796     21799     21801     21802
     21796     21799     21801     21803     21796     21799     21801     21804
     21797     21796     21794     21799     21797     21796     21799     21800
     21797     21796     21799     21801     21798     21796     21794     21799
     21798     21796     21799     21800     21798     21796     21799     21801
     21799     21801     21804     21805     21799     21801     21804     21806
     21799     21801     21804     21807     21800     21799     21801     21802
     21800     21799     21801     21803     21800     21799     21801     21804
     21801     21804     21807     21808     21801     21804     21807     21809
     21801     21804     21807     21810     21802     21801     21804     21805
     21802     21801     21804     21806     21802     21801     21804     21807
     21803     21801     21804     21805     21803     21801     21804     21806
     21803     21801     21804     21807     21804     21807     21810     21811
     21804     21807     21810     21812     21804     21807     21810     21813
     21805     21804     21807     21808     21805     21804     21807     21809
     21805     21804     21807     21810     21806     21804     21807     21808
     21806     21804     21807     21809     21806     21804     21807     21810
     21807     21810     21813     21814     21807     21810     21813     21815
     21807     21810     21813     21816     21808     21807     21810     21811
     21808     21807     21810     21812     21808     21807     21810     21813
     21809     21807     21810     21811     21809     21807     21810     21812
     21809     21807     21810     21813     21810     21813     21816     21817
     21810     21813     21816     21818     21810     21813     21816     21819
     21811     21810     21813     21814     21811     21810     21813     21815
     21811     21810     21813     21816     21812     21810     21813     21814
     21812     21810     21813     21815     21812     21810     21813     21816
     21814     21813     21816     21817     21814     21813     21816     21818
     21814     21813     21816     21819     21815     21813     21816     21817
     21815     21813     21816     21818     21815     21813     21816     21819
     21820     21823     21826     21827     21820     21823     21826     21828
     21820     21823     21826     21829     21821     21820     21823     21824
     21821     21820     21823     21825     21821     21820     21823     21826
     21822     21820     21823     21824     21822     21820     21823     21825
     21822     21820     21823     21826     21823     21826     21829     21830
     21823     21826     21829     21831     21823     21826     21829     21832
     21824     21823     21826     21827     21824     21823     21826     21828
     21824     21823     21826     21829     21825     21823     21826     21827
     21825     21823     21826     21828     21825     21823     21826     21829
     21826     21829     21832     21833     21826     21829     21832     21834
     21826     21829     21832     21835     21827     21826     21829     21830
     21827     21826     21829     21831     21827     21826     21829     21832
     21828     21826     21829     21830     21828     21826     21829     21831
     21828     21826     21829     21832     21829     21832     21835     21836
     21829     21832     21835     21837     21829     21832     21835     21838
     21830     21829     21832     21833     21830     21829     21832     21834
     21830     21829     21832     21835     21831     21829     21832     21833
     21831     21829     21832     21834     21831     21829     21832     21835
     21832     21835     21838     21839     21832     21835     21838     21840
     21832     21835     21838     21841     21833     21832     21835     21836
     21833     21832     21835     21837     21833     21832     21835     21838
     21834     21832     21835     21836     21834     21832     21835     21837
     21834     21832     21835     21838     21835     21838     21841     21842
     21835     21838     21841     21843     21835     21838     21841     21844
     21836     21835     21838     21839     21836     21835     21838     21840
     21836     21835     21838     21841     21837     21835     21838     21839
     21837     21835     21838     21840     21837     21835     21838     21841
     21838     21841     21844     21845     21838     21841     21844     21846
     21838     21841     21844     21847     21839     21838     21841     21842
     21839     21838     21841     21843     21839     21838     21841     21844
     21840     21838     21841     21842     21840     21838     21841     21843
     21840     21838     21841     21844     21841     21844     21847     21848
     21841     21844     21847     21849     21841     21844     21847     21850
     21842     21841     21844     21845     21842     21841     21844     21846
     21842     21841     21844     21847     21843     21841     21844     21845
     21843     21841     21844     21846     21843     21841     21844     21847
     21844     21847     21850     21851     21844     21847     21850     21852
     21844     21847     21850     21853     21845     21844     21847     21848
     21845     21844     21847     21849     21845     21844     21847     21850
     21846     21844     21847     21848     21846     21844     21847     21849
     21846     21844     21847     21850     21847     21850     21853     21854
     21847     21850     21853     21855     21847     21850     21853     21856
     21848     21847     21850     21851     21848     21847     21850     21852
     21848     21847     21850     21853     21849     21847     21850     21851
     21849     21847     21850     21852     21849     21847     21850     21853
     21850     21853     21856     21857     21850     21853     21856     21858
     21850     21853     21856     21859     21851     21850     21853     21854
     21851     21850     21853     21855     21851     21850     21853     21856
     21852     21850     21853     21854     21852     21850     21853     21855
     21852     21850     21853     21856     21853     21856     21859     21860
     21853     21856     21859     21861     21853     21856     21859     21862
     21854     21853     21856     21857     21854     21853     21856     21858
     21854     21853     21856     21859     21855     21853     21856     21857
     21855     21853     21856     21858     21855     21853     21856     21859
     21857     21856     21859     21860     21857     21856     21859     21861
     21857     21856     21859     21862     21858     21856     21859     21860
     21858     21856     21859     21861     21858     21856     21859     21862
     21863     21867     21870     21871     21863     21867     21870     21872
     21863     21867     21870     21877     21864     21863     21867     21868
     21864     21863     21867     21869     21864     21863     21867     21870
     21865     21863     21867     21868     21865     21863     21867     21869
     21865     21863     21867     21870     21866     21863     21867     21868
     21866     21863     21867     21869     21866     21863     21867     21870
     21867     21870     21877     21873     21868     21867     21870     21871
     21868     21867     21870     21872     21868     21867     21870     21877
     21869     21867     21870     21871     21869     21867     21870     21872
     21869     21867     21870     21877     21870     21877     21873     21874
     21870     21877     21873     21875     21870     21877     21873     21876
     21871     21870     21877     21873     21872     21870     21877     21873
     21873     21876     21878     21879     21873     21876     21878     21880
     21873     21876     21878     21881     21874     21873     21876     21878
     21875     21873     21876     21878     21876     21878     21881     21882
     21876     21878     21881     21883     21876     21878     21881     21889
     21877     21873     21876     21878     21878     21881     21883     21884
     21878     21881     21889     21890     21878     21881     21889     21891
     21878     21881     21889     21892     21879     21878     21881     21882
     21879     21878     21881     21883     21879     21878     21881     21889
     21880     21878     21881     21882     21880     21878     21881     21883
     21880     21878     21881     21889     21881     21883     21884     21885
     21881     21883     21884     21886     21881     21889     21892     21893
     21882     21881     21883     21884     21882     21881     21889     21890
     21882     21881     21889     21891     21882     21881     21889     21892
     21883     21881     21889     21890     21883     21881     21889     21891
     21883     21881     21889     21892     21883     21884     21886     21887
     21883     21884     21886     21888     21883     21884     21886     21898
     21884     21883     21881     21889     21884     21886     21898     21899
     21884     21886     21898     21900     21884     21886     21898     21901
     21885     21884     21886     21887     21885     21884     21886     21888
     21885     21884     21886     21898     21886     21898     21901     21902
     21886     21898     21901     21903     21886     21898     21901     21904
     21887     21886     21898     21899     21887     21886     21898     21900
     21887     21886     21898     21901     21888     21886     21898     21899
     21888     21886     21898     21900     21888     21886     21898     21901
     21889     21892     21893     21894     21889     21892     21893     21895
     21890     21889     21892     21893     21891     21889     21892     21893
     21892     21893     21895     21896     21892     21893     21895     21897
     21892     21893     21895     21939     21893     21895     21939     21940
     21893     21895     21939     21941     21893     21895     21939     21942
     21894     21893     21895     21896     21894     21893     21895     21897
     21894     21893     21895     21939     21895     21939     21942     21943
     21895     21939     21942     21944     21895     21939     21942     21945
     21896     21895     21939     21940     21896     21895     21939     21941
     21896     21895     21939     21942     21897     21895     21939     21940
     21897     21895     21939     21941     21897     21895     21939     21942
     21898     21901     21904     21905     21898     21901     21904     21906
     21898     21901     21904     21907     21899     21898     21901     21902
     21899     21898     21901     21903     21899     21898     21901     21904
     21900     21898     21901     21902     21900     21898     21901     21903
     21900     21898     21901     21904     21901     21904     21907     21908
     21901     21904     21907     21909     21901     21904     21907     21910
     21902     21901     21904     21905     21902     21901     21904     21906
     21902     21901     21904     21907     21903     21901     21904     21905
     21903     21901     21904     21906     21903     21901     21904     21907
     21904     21907     21910     21911     21904     21907     21910     21912
     21904     21907     21910     21913     21905     21904     21907     21908
     21905     21904     21907     21909     21905     21904     21907     21910
     21906     21904     21907     21908     21906     21904     21907     21909
     21906     21904     21907     21910     21907     21910     21913     21914
     21907     21910     21913     21915     21907     21910     21913     21916
     21908     21907     21910     21911     21908     21907     21910     21912
     21908     21907     21910     21913     21909     21907     21910     21911
     21909     21907     21910     21912     21909     21907     21910     21913
     21910     21913     21916     21917     21910     21913     21916     21918
     21911     21910     21913     21914     21911     21910     21913     21915
     21911     21910     21913     21916     21912     21910     21913     21914
     21912     21910     21913     21915     21912     21910     21913     21916
     21913     21916     21918     21919     21913     21916     21918     21920
     21914     21913     21916     21917     21914     21913     21916     21918
     21915     21913     21916     21917     21915     21913     21916     21918
     21916     21918     21920     21921     21916     21918     21920     21922
     21916     21918     21920     21923     21917     21916     21918     21919
     21917     21916     21918     21920     21918     21920     21923     21924
     21918     21920     21923     21925     21918     21920     21923     21926
     21919     21918     21920     21921     21919     21918     21920     21922
     21919     21918     21920     21923     21920     21923     21926     21927
     21920     21923     21926     21928     21920     21923     21926     21929
     21921     21920     21923     21924     21921     21920     21923     21925
     21921     21920     21923     21926     21922     21920     21923     21924
     21922     21920     21923     21925     21922     21920     21923     21926
     21923     21926     21929     21930     21923     21926     21929     21931
     21923     21926     21929     21932     21924     21923     21926     21927
     21924     21923     21926     21928     21924     21923     21926     21929
     21925     21923     21926     21927     21925     21923     21926     21928
     21925     21923     21926     21929     21926     21929     21932     21933
     21926     21929     21932     21934     21926     21929     21932     21935
     21927     21926     21929     21930     21927     21926     21929     21931
     21927     21926     21929     21932     21928     21926     21929     21930
     21928     21926     21929     21931     21928     21926     21929     21932
     21929     21932     21935     21936     21929     21932     21935     21937
     21929     21932     21935     21938     21930     21929     21932     21933
     21930     21929     21932     21934     21930     21929     21932     21935
     21931     21929     21932     21933     21931     21929     21932     21934
     21931     21929     21932     21935     21933     21932     21935     21936
     21933     21932     21935     21937     21933     21932     21935     21938
     21934     21932     21935     21936     21934     21932     21935     21937
     21934     21932     21935     21938     21939     21942     21945     21946
     21939     21942     21945     21947     21939     21942     21945     21948
     21940     21939     21942     21943     21940     21939     21942     21944
     21940     21939     21942     21945     21941     21939     21942     21943
     21941     21939     21942     21944     21941     21939     21942     21945
     21942     21945     21948     21949     21942     21945     21948     21950
     21942     21945     21948     21951     21943     21942     21945     21946
     21943     21942     21945     21947     21943     21942     21945     21948
     21944     21942     21945     21946     21944     21942     21945     21947
     21944     21942     21945     21948     21945     21948     21951     21952
     21945     21948     21951     21953     21945     21948     21951     21954
     21946     21945     21948     21949     21946     21945     21948     21950
     21946     21945     21948     21951     21947     21945     21948     21949
     21947     21945     21948     21950     21947     21945     21948     21951
     21948     21951     21954     21955     21948     21951     21954     21956
     21948     21951     21954     21957     21949     21948     21951     21952
     21949     21948     21951     21953     21949     21948     21951     21954
     21950     21948     21951     21952     21950     21948     21951     21953
     21950     21948     21951     21954     21951     21954     21957     21958
     21951     21954     21957     21959     21952     21951     21954     21955
     21952     21951     21954     21956     21952     21951     21954     21957
     21953     21951     21954     21955     21953     21951     21954     21956
     21953     21951     21954     21957     21954     21957     21959     21960
     21954     21957     21959     21961     21955     21954     21957     21958
     21955     21954     21957     21959     21956     21954     21957     21958
     21956     21954     21957     21959     21957     21959     21961     21962
     21957     21959     21961     21963     21957     21959     21961     21964
     21958     21957     21959     21960     21958     21957     21959     21961
     21959     21961     21964     21965     21959     21961     21964     21966
     21959     21961     21964     21967     21960     21959     21961     21962
     21960     21959     21961     21963     21960     21959     21961     21964
     21961     21964     21967     21968     21961     21964     21967     21969
     21961     21964     21967     21970     21962     21961     21964     21965
     21962     21961     21964     21966     21962     21961     21964     21967
     21963     21961     21964     21965     21963     21961     21964     21966
     21963     21961     21964     21967     21964     21967     21970     21971
     21964     21967     21970     21972     21964     21967     21970     21973
     21965     21964     21967     21968     21965     21964     21967     21969
     21965     21964     21967     21970     21966     21964     21967     21968
     21966     21964     21967     21969     21966     21964     21967     21970
     21967     21970     21973     21974     21967     21970     21973     21975
     21967     21970     21973     21976     21968     21967     21970     21971
     21968     21967     21970     21972     21968     21967     21970     21973
     21969     21967     21970     21971     21969     21967     21970     21972
     21969     21967     21970     21973     21970     21973     21976     21977
     21970     21973     21976     21978     21970     21973     21976     21979
     21971     21970     21973     21974     21971     21970     21973     21975
     21971     21970     21973     21976     21972     21970     21973     21974
     21972     21970     21973     21975     21972     21970     21973     21976
     21973     21976     21979     21980     21973     21976     21979     21981
     21973     21976     21979     21982     21974     21973     21976     21977
     21974     21973     21976     21978     21974     21973     21976     21979
     21975     21973     21976     21977     21975     21973     21976     21978
     21975     21973     21976     21979     21976     21979     21982     21983
     21976     21979     21982     21984     21976     21979     21982     21985
     21977     21976     21979     21980     21977     21976     21979     21981
     21977     21976     21979     21982     21978     21976     21979     21980
     21978     21976     21979     21981     21978     21976     21979     21982
     21980     21979     21982     21983     21980     21979     21982     21984
     21980     21979     21982     21985     21981     21979     21982     21983
     21981     21979     21982     21984     21981     21979     21982     21985
     21986     21991     21993     21994     21986     21991     21995     21996
     21986     21991     21995     21997     21986     21991     21995     22002
     21987     21986     21989     21990     21987     21986     21991     21992
     21987     21986     21991     21993     21987     21986     21991     21995
     21988     21986     21989     21990     21988     21986     21991     21992
     21988     21986     21991     21993     21988     21986     21991     21995
     21989     21986     21991     21992     21989     21986     21991     21993
     21989     21986     21991     21995     21990     21989     21986     21991
     21991     21995     22002     21998     21992     21991     21993     21994
     21992     21991     21995     21996     21992     21991     21995     21997
     21992     21991     21995     22002     21993     21991     21995     21996
     21993     21991     21995     21997     21993     21991     21995     22002
     21994     21993     21991     21995     21995     22002     21998     21999
     21995     22002     21998     22000     21995     22002     21998     22001
     21996     21995     22002     21998     21997     21995     22002     21998
     21998     22001     22003     22004     21998     22001     22003     22005
     21998     22001     22003     22006     21999     21998     22001     22003
     22000     21998     22001     22003     22001     22003     22006     22007
     22001     22003     22006     22008     22001     22003     22006     22014
     22002     21998     22001     22003     22003     22006     22008     22009
     22003     22006     22014     22015     22003     22006     22014     22016
     22003     22006     22014     22017     22004     22003     22006     22007
     22004     22003     22006     22008     22004     22003     22006     22014
     22005     22003     22006     22007     22005     22003     22006     22008
     22005     22003     22006     22014     22006     22008     22009     22010
     22006     22008     22009     22011     22006     22014     22017     22018
     22007     22006     22008     22009     22007     22006     22014     22015
     22007     22006     22014     22016     22007     22006     22014     22017
     22008     22006     22014     22015     22008     22006     22014     22016
     22008     22006     22014     22017     22008     22009     22011     22012
     22008     22009     22011     22013     22008     22009     22011     22023
     22009     22008     22006     22014     22009     22011     22023     22024
     22009     22011     22023     22025     22009     22011     22023     22026
     22010     22009     22011     22012     22010     22009     22011     22013
     22010     22009     22011     22023     22011     22023     22026     22027
     22011     22023     22026     22028     22011     22023     22026     22029
     22012     22011     22023     22024     22012     22011     22023     22025
     22012     22011     22023     22026     22013     22011     22023     22024
     22013     22011     22023     22025     22013     22011     22023     22026
     22014     22017     22018     22019     22014     22017     22018     22020
     22015     22014     22017     22018     22016     22014     22017     22018
     22017     22018     22020     22021     22017     22018     22020     22022
     22017     22018     22020     22067     22018     22020     22067     22068
     22018     22020     22067     22069     22018     22020     22067     22070
     22019     22018     22020     22021     22019     22018     22020     22022
     22019     22018     22020     22067     22020     22067     22070     22071
     22020     22067     22070     22072     22020     22067     22070     22073
     22021     22020     22067     22068     22021     22020     22067     22069
     22021     22020     22067     22070     22022     22020     22067     22068
     22022     22020     22067     22069     22022     22020     22067     22070
     22023     22026     22029     22030     22023     22026     22029     22031
     22023     22026     22029     22032     22024     22023     22026     22027
     22024     22023     22026     22028     22024     22023     22026     22029
     22025     22023     22026     22027     22025     22023     22026     22028
     22025     22023     22026     22029     22026     22029     22032     22033
     22026     22029     22032     22034     22026     22029     22032     22035
     22027     22026     22029     22030     22027     22026     22029     22031
     22027     22026     22029     22032     22028     22026     22029     22030
     22028     22026     22029     22031     22028     22026     22029     22032
     22029     22032     22035     22036     22029     22032     22035     22037
     22029     22032     22035     22038     22030     22029     22032     22033
     22030     22029     22032     22034     22030     22029     22032     22035
     22031     22029     22032     22033     22031     22029     22032     22034
     22031     22029     22032     22035     22032     22035     22038     22039
     22032     22035     22038     22040     22032     22035     22038     22041
     22033     22032     22035     22036     22033     22032     22035     22037
     22033     22032     22035     22038     22034     22032     22035     22036
     22034     22032     22035     22037     22034     22032     22035     22038
     22035     22038     22041     22042     22035     22038     22041     22043
     22035     22038     22041     22046     22036     22035     22038     22039
     22036     22035     22038     22040     22036     22035     22038     22041
     22037     22035     22038     22039     22037     22035     22038     22040
     22037     22035     22038     22041     22038     22041     22043     22044
     22038     22041     22043     22045     22038     22041     22043     22046
     22038     22041     22046     22043     22038     22041     22046     22047
     22038     22041     22046     22048     22039     22038     22041     22042
     22039     22038     22041     22043     22039     22038     22041     22046
     22040     22038     22041     22042     22040     22038     22041     22043
     22040     22038     22041     22046     22041     22043     22046     22047
     22041     22043     22046     22048     22041     22046     22043     22044
     22041     22046     22043     22045     22041     22046     22048     22049
     22041     22046     22048     22050     22041     22046     22048     22051
     22042     22041     22043     22044     22042     22041     22043     22045
     22042     22041     22043     22046     22042     22041     22046     22043
     22042     22041     22046     22047     22042     22041     22046     22048
     22043     22041     22046     22047     22043     22041     22046     22048
     22043     22046     22048     22049     22043     22046     22048     22050
     22043     22046     22048     22051     22044     22043     22041     22046
     22044     22043     22046     22047     22044     22043     22046     22048
     22045     22043     22041     22046     22045     22043     22046     22047
     22045     22043     22046     22048     22046     22048     22051     22052
     22046     22048     22051     22053     22046     22048     22051     22054
     22047     22046     22048     22049     22047     22046     22048     22050
     22047     22046     22048     22051     22048     22051     22054     22055
     22048     22051     22054     22056     22048     22051     22054     22057
     22049     22048     22051     22052     22049     22048     22051     22053
     22049     22048     22051     22054     22050     22048     22051     22052
     22050     22048     22051     22053     22050     22048     22051     22054
     22051     22054     22057     22058     22051     22054     22057     22059
     22051     22054     22057     22060     22052     22051     22054     22055
     22052     22051     22054     22056     22052     22051     22054     22057
     22053     22051     22054     22055     22053     22051     22054     22056
     22053     22051     22054     22057     22054     22057     22060     22061
     22054     22057     22060     22062     22054     22057     22060     22063
     22055     22054     22057     22058     22055     22054     22057     22059
     22055     22054     22057     22060     22056     22054     22057     22058
     22056     22054     22057     22059     22056     22054     22057     22060
     22057     22060     22063     22064     22057     22060     22063     22065
     22057     22060     22063     22066     22058     22057     22060     22061
     22058     22057     22060     22062     22058     22057     22060     22063
     22059     22057     22060     22061     22059     22057     22060     22062
     22059     22057     22060     22063     22061     22060     22063     22064
     22061     22060     22063     22065     22061     22060     22063     22066
     22062     22060     22063     22064     22062     22060     22063     22065
     22062     22060     22063     22066     22067     22070     22073     22074
     22067     22070     22073     22075     22067     22070     22073     22076
     22068     22067     22070     22071     22068     22067     22070     22072
     22068     22067     22070     22073     22069     22067     22070     22071
     22069     22067     22070     22072     22069     22067     22070     22073
     22070     22073     22076     22077     22070     22073     22076     22078
     22070     22073     22076     22079     22071     22070     22073     22074
     22071     22070     22073     22075     22071     22070     22073     22076
     22072     22070     22073     22074     22072     22070     22073     22075
     22072     22070     22073     22076     22073     22076     22079     22080
     22073     22076     22079     22081     22073     22076     22079     22082
     22074     22073     22076     22077     22074     22073     22076     22078
     22074     22073     22076     22079     22075     22073     22076     22077
     22075     22073     22076     22078     22075     22073     22076     22079
     22076     22079     22082     22083     22076     22079     22082     22084
     22076     22079     22082     22085     22077     22076     22079     22080
     22077     22076     22079     22081     22077     22076     22079     22082
     22078     22076     22079     22080     22078     22076     22079     22081
     22078     22076     22079     22082     22079     22082     22085     22086
     22079     22082     22085     22087     22079     22082     22085     22088
     22080     22079     22082     22083     22080     22079     22082     22084
     22080     22079     22082     22085     22081     22079     22082     22083
     22081     22079     22082     22084     22081     22079     22082     22085
     22082     22085     22088     22089     22082     22085     22088     22090
     22082     22085     22088     22091     22083     22082     22085     22086
     22083     22082     22085     22087     22083     22082     22085     22088
     22084     22082     22085     22086     22084     22082     22085     22087
     22084     22082     22085     22088     22085     22088     22091     22092
     22085     22088     22091     22093     22085     22088     22091     22094
     22086     22085     22088     22089     22086     22085     22088     22090
     22086     22085     22088     22091     22087     22085     22088     22089
     22087     22085     22088     22090     22087     22085     22088     22091
     22088     22091     22094     22095     22088     22091     22094     22096
     22088     22091     22094     22097     22089     22088     22091     22092
     22089     22088     22091     22093     22089     22088     22091     22094
     22090     22088     22091     22092     22090     22088     22091     22093
     22090     22088     22091     22094     22091     22094     22097     22098
     22091     22094     22097     22099     22091     22094     22097     22100
     22092     22091     22094     22095     22092     22091     22094     22096
     22092     22091     22094     22097     22093     22091     22094     22095
     22093     22091     22094     22096     22093     22091     22094     22097
     22094     22097     22100     22101     22094     22097     22100     22102
     22094     22097     22100     22103     22095     22094     22097     22098
     22095     22094     22097     22099     22095     22094     22097     22100
     22096     22094     22097     22098     22096     22094     22097     22099
     22096     22094     22097     22100     22097     22100     22103     22104
     22097     22100     22103     22105     22097     22100     22103     22106
     22098     22097     22100     22101     22098     22097     22100     22102
     22098     22097     22100     22103     22099     22097     22100     22101
     22099     22097     22100     22102     22099     22097     22100     22103
     22100     22103     22106     22107     22100     22103     22106     22108
     22100     22103     22106     22109     22101     22100     22103     22104
     22101     22100     22103     22105     22101     22100     22103     22106
     22102     22100     22103     22104     22102     22100     22103     22105
     22102     22100     22103     22106     22104     22103     22106     22107
     22104     22103     22106     22108     22104     22103     22106     22109
     22105     22103     22106     22107     22105     22103     22106     22108
     22105     22103     22106     22109     22110     22114     22117     22118
     22110     22114     22117     22119     22110     22114     22117     22124
     22111     22110     22114     22115     22111     22110     22114     22116
     22111     22110     22114     22117     22112     22110     22114     22115
     22112     22110     22114     22116     22112     22110     22114     22117
     22113     22110     22114     22115     22113     22110     22114     22116
     22113     22110     22114     22117     22114     22117     22124     22120
     22115     22114     22117     22118     22115     22114     22117     22119
     22115     22114     22117     22124     22116     22114     22117     22118
     22116     22114     22117     22119     22116     22114     22117     22124
     22117     22124     22120     22121     22117     22124     22120     22122
     22117     22124     22120     22123     22118     22117     22124     22120
     22119     22117     22124     22120     22120     22123     22125     22126
     22120     22123     22125     22127     22120     22123     22125     22128
     22121     22120     22123     22125     22122     22120     22123     22125
     22123     22125     22128     22129     22123     22125     22128     22130
     22123     22125     22128     22136     22124     22120     22123     22125
     22125     22128     22130     22131     22125     22128     22136     22137
     22125     22128     22136     22138     22125     22128     22136     22139
     22126     22125     22128     22129     22126     22125     22128     22130
     22126     22125     22128     22136     22127     22125     22128     22129
     22127     22125     22128     22130     22127     22125     22128     22136
     22128     22130     22131     22132     22128     22130     22131     22133
     22128     22136     22139     22140     22129     22128     22130     22131
     22129     22128     22136     22137     22129     22128     22136     22138
     22129     22128     22136     22139     22130     22128     22136     22137
     22130     22128     22136     22138     22130     22128     22136     22139
     22130     22131     22133     22134     22130     22131     22133     22135
     22130     22131     22133     22145     22131     22130     22128     22136
     22131     22133     22145     22146     22131     22133     22145     22147
     22131     22133     22145     22148     22132     22131     22133     22134
     22132     22131     22133     22135     22132     22131     22133     22145
     22133     22145     22148     22149     22133     22145     22148     22150
     22133     22145     22148     22151     22134     22133     22145     22146
     22134     22133     22145     22147     22134     22133     22145     22148
     22135     22133     22145     22146     22135     22133     22145     22147
     22135     22133     22145     22148     22136     22139     22140     22141
     22136     22139     22140     22142     22137     22136     22139     22140
     22138     22136     22139     22140     22139     22140     22142     22143
     22139     22140     22142     22144     22139     22140     22142     22189
     22140     22142     22189     22190     22140     22142     22189     22191
     22140     22142     22189     22192     22141     22140     22142     22143
     22141     22140     22142     22144     22141     22140     22142     22189
     22142     22189     22192     22193     22142     22189     22192     22194
     22142     22189     22192     22195     22143     22142     22189     22190
     22143     22142     22189     22191     22143     22142     22189     22192
     22144     22142     22189     22190     22144     22142     22189     22191
     22144     22142     22189     22192     22145     22148     22151     22152
     22145     22148     22151     22153     22145     22148     22151     22154
     22146     22145     22148     22149     22146     22145     22148     22150
     22146     22145     22148     22151     22147     22145     22148     22149
     22147     22145     22148     22150     22147     22145     22148     22151
     22148     22151     22154     22155     22148     22151     22154     22156
     22148     22151     22154     22157     22149     22148     22151     22152
     22149     22148     22151     22153     22149     22148     22151     22154
     22150     22148     22151     22152     22150     22148     22151     22153
     22150     22148     22151     22154     22151     22154     22157     22158
     22151     22154     22157     22159     22151     22154     22157     22160
     22152     22151     22154     22155     22152     22151     22154     22156
     22152     22151     22154     22157     22153     22151     22154     22155
     22153     22151     22154     22156     22153     22151     22154     22157
     22154     22157     22160     22161     22154     22157     22160     22162
     22154     22157     22160     22163     22155     22154     22157     22158
     22155     22154     22157     22159     22155     22154     22157     22160
     22156     22154     22157     22158     22156     22154     22157     22159
     22156     22154     22157     22160     22157     22160     22163     22164
     22157     22160     22163     22165     22157     22160     22163     22168
     22158     22157     22160     22161     22158     22157     22160     22162
     22158     22157     22160     22163     22159     22157     22160     22161
     22159     22157     22160     22162     22159     22157     22160     22163
     22160     22163     22165     22166     22160     22163     22165     22167
     22160     22163     22165     22168     22160     22163     22168     22165
     22160     22163     22168     22169     22160     22163     22168     22170
     22161     22160     22163     22164     22161     22160     22163     22165
     22161     22160     22163     22168     22162     22160     22163     22164
     22162     22160     22163     22165     22162     22160     22163     22168
     22163     22165     22168     22169     22163     22165     22168     22170
     22163     22168     22165     22166     22163     22168     22165     22167
     22163     22168     22170     22171     22163     22168     22170     22172
     22163     22168     22170     22173     22164     22163     22165     22166
     22164     22163     22165     22167     22164     22163     22165     22168
     22164     22163     22168     22165     22164     22163     22168     22169
     22164     22163     22168     22170     22165     22163     22168     22169
     22165     22163     22168     22170     22165     22168     22170     22171
     22165     22168     22170     22172     22165     22168     22170     22173
     22166     22165     22163     22168     22166     22165     22168     22169
     22166     22165     22168     22170     22167     22165     22163     22168
     22167     22165     22168     22169     22167     22165     22168     22170
     22168     22170     22173     22174     22168     22170     22173     22175
     22168     22170     22173     22176     22169     22168     22170     22171
     22169     22168     22170     22172     22169     22168     22170     22173
     22170     22173     22176     22177     22170     22173     22176     22178
     22170     22173     22176     22179     22171     22170     22173     22174
     22171     22170     22173     22175     22171     22170     22173     22176
     22172     22170     22173     22174     22172     22170     22173     22175
     22172     22170     22173     22176     22173     22176     22179     22180
     22173     22176     22179     22181     22173     22176     22179     22182
     22174     22173     22176     22177     22174     22173     22176     22178
     22174     22173     22176     22179     22175     22173     22176     22177
     22175     22173     22176     22178     22175     22173     22176     22179
     22176     22179     22182     22183     22176     22179     22182     22184
     22176     22179     22182     22185     22177     22176     22179     22180
     22177     22176     22179     22181     22177     22176     22179     22182
     22178     22176     22179     22180     22178     22176     22179     22181
     22178     22176     22179     22182     22179     22182     22185     22186
     22179     22182     22185     22187     22179     22182     22185     22188
     22180     22179     22182     22183     22180     22179     22182     22184
     22180     22179     22182     22185     22181     22179     22182     22183
     22181     22179     22182     22184     22181     22179     22182     22185
     22183     22182     22185     22186     22183     22182     22185     22187
     22183     22182     22185     22188     22184     22182     22185     22186
     22184     22182     22185     22187     22184     22182     22185     22188
     22189     22192     22195     22196     22189     22192     22195     22197
     22189     22192     22195     22198     22190     22189     22192     22193
     22190     22189     22192     22194     22190     22189     22192     22195
     22191     22189     22192     22193     22191     22189     22192     22194
     22191     22189     22192     22195     22192     22195     22198     22199
     22192     22195     22198     22200     22192     22195     22198     22201
     22193     22192     22195     22196     22193     22192     22195     22197
     22193     22192     22195     22198     22194     22192     22195     22196
     22194     22192     22195     22197     22194     22192     22195     22198
     22195     22198     22201     22202     22195     22198     22201     22203
     22195     22198     22201     22204     22196     22195     22198     22199
     22196     22195     22198     22200     22196     22195     22198     22201
     22197     22195     22198     22199     22197     22195     22198     22200
     22197     22195     22198     22201     22198     22201     22204     22205
     22198     22201     22204     22206     22198     22201     22204     22207
     22199     22198     22201     22202     22199     22198     22201     22203
     22199     22198     22201     22204     22200     22198     22201     22202
     22200     22198     22201     22203     22200     22198     22201     22204
     22201     22204     22207     22208     22201     22204     22207     22209
     22201     22204     22207     22210     22202     22201     22204     22205
     22202     22201     22204     22206     22202     22201     22204     22207
     22203     22201     22204     22205     22203     22201     22204     22206
     22203     22201     22204     22207     22204     22207     22210     22211
     22204     22207     22210     22212     22204     22207     22210     22213
     22205     22204     22207     22208     22205     22204     22207     22209
     22205     22204     22207     22210     22206     22204     22207     22208
     22206     22204     22207     22209     22206     22204     22207     22210
     22207     22210     22213     22214     22207     22210     22213     22215
     22207     22210     22213     22216     22208     22207     22210     22211
     22208     22207     22210     22212     22208     22207     22210     22213
     22209     22207     22210     22211     22209     22207     22210     22212
     22209     22207     22210     22213     22210     22213     22216     22217
     22210     22213     22216     22218     22210     22213     22216     22219
     22211     22210     22213     22214     22211     22210     22213     22215
     22211     22210     22213     22216     22212     22210     22213     22214
     22212     22210     22213     22215     22212     22210     22213     22216
     22213     22216     22219     22220     22213     22216     22219     22221
     22213     22216     22219     22222     22214     22213     22216     22217
     22214     22213     22216     22218     22214     22213     22216     22219
     22215     22213     22216     22217     22215     22213     22216     22218
     22215     22213     22216     22219     22216     22219     22222     22223
     22216     22219     22222     22224     22216     22219     22222     22225
     22217     22216     22219     22220     22217     22216     22219     22221
     22217     22216     22219     22222     22218     22216     22219     22220
     22218     22216     22219     22221     22218     22216     22219     22222
     22219     22222     22225     22226     22219     22222     22225     22227
     22219     22222     22225     22228     22220     22219     22222     22223
     22220     22219     22222     22224     22220     22219     22222     22225
     22221     22219     22222     22223     22221     22219     22222     22224
     22221     22219     22222     22225     22222     22225     22228     22229
     22222     22225     22228     22230     22222     22225     22228     22231
     22223     22222     22225     22226     22223     22222     22225     22227
     22223     22222     22225     22228     22224     22222     22225     22226
     22224     22222     22225     22227     22224     22222     22225     22228
     22226     22225     22228     22229     22226     22225     22228     22230
     22226     22225     22228     22231     22227     22225     22228     22229
     22227     22225     22228     22230     22227     22225     22228     22231
     22232     22236     22239     22240     22232     22236     22239     22241
     22232     22236     22239     22246     22233     22232     22236     22237
     22233     22232     22236     22238     22233     22232     22236     22239
     22234     22232     22236     22237     22234     22232     22236     22238
     22234     22232     22236     22239     22235     22232     22236     22237
     22235     22232     22236     22238     22235     22232     22236     22239
     22236     22239     22246     22242     22237     22236     22239     22240
     22237     22236     22239     22241     22237     22236     22239     22246
     22238     22236     22239     22240     22238     22236     22239     22241
     22238     22236     22239     22246     22239     22246     22242     22243
     22239     22246     22242     22244     22239     22246     22242     22245
     22240     22239     22246     22242     22241     22239     22246     22242
     22242     22245     22247     22248     22242     22245     22247     22249
     22242     22245     22247     22250     22243     22242     22245     22247
     22244     22242     22245     22247     22245     22247     22250     22251
     22245     22247     22250     22252     22245     22247     22250     22258
     22246     22242     22245     22247     22247     22250     22252     22253
     22247     22250     22258     22259     22247     22250     22258     22260
     22247     22250     22258     22261     22248     22247     22250     22251
     22248     22247     22250     22252     22248     22247     22250     22258
     22249     22247     22250     22251     22249     22247     22250     22252
     22249     22247     22250     22258     22250     22252     22253     22254
     22250     22252     22253     22255     22250     22258     22261     22262
     22251     22250     22252     22253     22251     22250     22258     22259
     22251     22250     22258     22260     22251     22250     22258     22261
     22252     22250     22258     22259     22252     22250     22258     22260
     22252     22250     22258     22261     22252     22253     22255     22256
     22252     22253     22255     22257     22252     22253     22255     22267
     22253     22252     22250     22258     22253     22255     22267     22268
     22253     22255     22267     22269     22253     22255     22267     22270
     22254     22253     22255     22256     22254     22253     22255     22257
     22254     22253     22255     22267     22255     22267     22270     22271
     22255     22267     22270     22272     22255     22267     22270     22273
     22256     22255     22267     22268     22256     22255     22267     22269
     22256     22255     22267     22270     22257     22255     22267     22268
     22257     22255     22267     22269     22257     22255     22267     22270
     22258     22261     22262     22263     22258     22261     22262     22264
     22259     22258     22261     22262     22260     22258     22261     22262
     22261     22262     22264     22265     22261     22262     22264     22266
     22261     22262     22264     22311     22262     22264     22311     22312
     22262     22264     22311     22313     22262     22264     22311     22314
     22263     22262     22264     22265     22263     22262     22264     22266
     22263     22262     22264     22311     22264     22311     22314     22315
     22264     22311     22314     22316     22264     22311     22314     22317
     22265     22264     22311     22312     22265     22264     22311     22313
     22265     22264     22311     22314     22266     22264     22311     22312
     22266     22264     22311     22313     22266     22264     22311     22314
     22267     22270     22273     22274     22267     22270     22273     22275
     22267     22270     22273     22276     22268     22267     22270     22271
     22268     22267     22270     22272     22268     22267     22270     22273
     22269     22267     22270     22271     22269     22267     22270     22272
     22269     22267     22270     22273     22270     22273     22276     22277
     22270     22273     22276     22278     22270     22273     22276     22279
     22271     22270     22273     22274     22271     22270     22273     22275
     22271     22270     22273     22276     22272     22270     22273     22274
     22272     22270     22273     22275     22272     22270     22273     22276
     22273     22276     22279     22280     22273     22276     22279     22281
     22273     22276     22279     22282     22274     22273     22276     22277
     22274     22273     22276     22278     22274     22273     22276     22279
     22275     22273     22276     22277     22275     22273     22276     22278
     22275     22273     22276     22279     22276     22279     22282     22283
     22276     22279     22282     22284     22276     22279     22282     22285
     22277     22276     22279     22280     22277     22276     22279     22281
     22277     22276     22279     22282     22278     22276     22279     22280
     22278     22276     22279     22281     22278     22276     22279     22282
     22279     22282     22285     22286     22279     22282     22285     22287
     22279     22282     22285     22290     22280     22279     22282     22283
     22280     22279     22282     22284     22280     22279     22282     22285
     22281     22279     22282     22283     22281     22279     22282     22284
     22281     22279     22282     22285     22282     22285     22287     22288
     22282     22285     22287     22289     22282     22285     22287     22290
     22282     22285     22290     22287     22282     22285     22290     22291
     22282     22285     22290     22292     22283     22282     22285     22286
     22283     22282     22285     22287     22283     22282     22285     22290
     22284     22282     22285     22286     22284     22282     22285     22287
     22284     22282     22285     22290     22285     22287     22290     22291
     22285     22287     22290     22292     22285     22290     22287     22288
     22285     22290     22287     22289     22285     22290     22292     22293
     22285     22290     22292     22294     22285     22290     22292     22295
     22286     22285     22287     22288     22286     22285     22287     22289
     22286     22285     22287     22290     22286     22285     22290     22287
     22286     22285     22290     22291     22286     22285     22290     22292
     22287     22285     22290     22291     22287     22285     22290     22292
     22287     22290     22292     22293     22287     22290     22292     22294
     22287     22290     22292     22295     22288     22287     22285     22290
     22288     22287     22290     22291     22288     22287     22290     22292
     22289     22287     22285     22290     22289     22287     22290     22291
     22289     22287     22290     22292     22290     22292     22295     22296
     22290     22292     22295     22297     22290     22292     22295     22298
     22291     22290     22292     22293     22291     22290     22292     22294
     22291     22290     22292     22295     22292     22295     22298     22299
     22292     22295     22298     22300     22292     22295     22298     22301
     22293     22292     22295     22296     22293     22292     22295     22297
     22293     22292     22295     22298     22294     22292     22295     22296
     22294     22292     22295     22297     22294     22292     22295     22298
     22295     22298     22301     22302     22295     22298     22301     22303
     22295     22298     22301     22304     22296     22295     22298     22299
     22296     22295     22298     22300     22296     22295     22298     22301
     22297     22295     22298     22299     22297     22295     22298     22300
     22297     22295     22298     22301     22298     22301     22304     22305
     22298     22301     22304     22306     22298     22301     22304     22307
     22299     22298     22301     22302     22299     22298     22301     22303
     22299     22298     22301     22304     22300     22298     22301     22302
     22300     22298     22301     22303     22300     22298     22301     22304
     22301     22304     22307     22308     22301     22304     22307     22309
     22301     22304     22307     22310     22302     22301     22304     22305
     22302     22301     22304     22306     22302     22301     22304     22307
     22303     22301     22304     22305     22303     22301     22304     22306
     22303     22301     22304     22307     22305     22304     22307     22308
     22305     22304     22307     22309     22305     22304     22307     22310
     22306     22304     22307     22308     22306     22304     22307     22309
     22306     22304     22307     22310     22311     22314     22317     22318
     22311     22314     22317     22319     22311     22314     22317     22320
     22312     22311     22314     22315     22312     22311     22314     22316
     22312     22311     22314     22317     22313     22311     22314     22315
     22313     22311     22314     22316     22313     22311     22314     22317
     22314     22317     22320     22321     22314     22317     22320     22322
     22314     22317     22320     22323     22315     22314     22317     22318
     22315     22314     22317     22319     22315     22314     22317     22320
     22316     22314     22317     22318     22316     22314     22317     22319
     22316     22314     22317     22320     22317     22320     22323     22324
     22317     22320     22323     22325     22317     22320     22323     22326
     22318     22317     22320     22321     22318     22317     22320     22322
     22318     22317     22320     22323     22319     22317     22320     22321
     22319     22317     22320     22322     22319     22317     22320     22323
     22320     22323     22326     22327     22320     22323     22326     22328
     22320     22323     22326     22329     22321     22320     22323     22324
     22321     22320     22323     22325     22321     22320     22323     22326
     22322     22320     22323     22324     22322     22320     22323     22325
     22322     22320     22323     22326     22323     22326     22329     22330
     22323     22326     22329     22331     22323     22326     22329     22332
     22324     22323     22326     22327     22324     22323     22326     22328
     22324     22323     22326     22329     22325     22323     22326     22327
     22325     22323     22326     22328     22325     22323     22326     22329
     22326     22329     22332     22333     22326     22329     22332     22334
     22326     22329     22332     22335     22327     22326     22329     22330
     22327     22326     22329     22331     22327     22326     22329     22332
     22328     22326     22329     22330     22328     22326     22329     22331
     22328     22326     22329     22332     22329     22332     22335     22336
     22329     22332     22335     22337     22329     22332     22335     22338
     22330     22329     22332     22333     22330     22329     22332     22334
     22330     22329     22332     22335     22331     22329     22332     22333
     22331     22329     22332     22334     22331     22329     22332     22335
     22332     22335     22338     22339     22332     22335     22338     22340
     22332     22335     22338     22341     22333     22332     22335     22336
     22333     22332     22335     22337     22333     22332     22335     22338
     22334     22332     22335     22336     22334     22332     22335     22337
     22334     22332     22335     22338     22335     22338     22341     22342
     22335     22338     22341     22343     22335     22338     22341     22344
     22336     22335     22338     22339     22336     22335     22338     22340
     22336     22335     22338     22341     22337     22335     22338     22339
     22337     22335     22338     22340     22337     22335     22338     22341
     22338     22341     22344     22345     22338     22341     22344     22346
     22338     22341     22344     22347     22339     22338     22341     22342
     22339     22338     22341     22343     22339     22338     22341     22344
     22340     22338     22341     22342     22340     22338     22341     22343
     22340     22338     22341     22344     22341     22344     22347     22348
     22341     22344     22347     22349     22341     22344     22347     22350
     22342     22341     22344     22345     22342     22341     22344     22346
     22342     22341     22344     22347     22343     22341     22344     22345
     22343     22341     22344     22346     22343     22341     22344     22347
     22344     22347     22350     22351     22344     22347     22350     22352
     22344     22347     22350     22353     22345     22344     22347     22348
     22345     22344     22347     22349     22345     22344     22347     22350
     22346     22344     22347     22348     22346     22344     22347     22349
     22346     22344     22347     22350     22348     22347     22350     22351
     22348     22347     22350     22352     22348     22347     22350     22353
     22349     22347     22350     22351     22349     22347     22350     22352
     22349     22347     22350     22353     22354     22359     22361     22362
     22354     22359     22363     22364     22354     22359     22363     22365
     22354     22359     22363     22370     22355     22354     22357     22358
     22355     22354     22359     22360     22355     22354     22359     22361
     22355     22354     22359     22363     22356     22354     22357     22358
     22356     22354     22359     22360     22356     22354     22359     22361
     22356     22354     22359     22363     22357     22354     22359     22360
     22357     22354     22359     22361     22357     22354     22359     22363
     22358     22357     22354     22359     22359     22363     22370     22366
     22360     22359     22361     22362     22360     22359     22363     22364
     22360     22359     22363     22365     22360     22359     22363     22370
     22361     22359     22363     22364     22361     22359     22363     22365
     22361     22359     22363     22370     22362     22361     22359     22363
     22363     22370     22366     22367     22363     22370     22366     22368
     22363     22370     22366     22369     22364     22363     22370     22366
     22365     22363     22370     22366     22366     22369     22371     22372
     22366     22369     22371     22373     22366     22369     22371     22374
     22367     22366     22369     22371     22368     22366     22369     22371
     22369     22371     22374     22375     22369     22371     22374     22376
     22369     22371     22374     22382     22370     22366     22369     22371
     22371     22374     22376     22377     22371     22374     22382     22383
     22371     22374     22382     22384     22371     22374     22382     22385
     22372     22371     22374     22375     22372     22371     22374     22376
     22372     22371     22374     22382     22373     22371     22374     22375
     22373     22371     22374     22376     22373     22371     22374     22382
     22374     22376     22377     22378     22374     22376     22377     22379
     22374     22382     22385     22386     22375     22374     22376     22377
     22375     22374     22382     22383     22375     22374     22382     22384
     22375     22374     22382     22385     22376     22374     22382     22383
     22376     22374     22382     22384     22376     22374     22382     22385
     22376     22377     22379     22380     22376     22377     22379     22381
     22376     22377     22379     22391     22377     22376     22374     22382
     22377     22379     22391     22392     22377     22379     22391     22393
     22377     22379     22391     22394     22378     22377     22379     22380
     22378     22377     22379     22381     22378     22377     22379     22391
     22379     22391     22394     22395     22379     22391     22394     22396
     22379     22391     22394     22397     22380     22379     22391     22392
     22380     22379     22391     22393     22380     22379     22391     22394
     22381     22379     22391     22392     22381     22379     22391     22393
     22381     22379     22391     22394     22382     22385     22386     22387
     22382     22385     22386     22388     22383     22382     22385     22386
     22384     22382     22385     22386     22385     22386     22388     22389
     22385     22386     22388     22390     22385     22386     22388     22432
     22386     22388     22432     22433     22386     22388     22432     22434
     22386     22388     22432     22435     22387     22386     22388     22389
     22387     22386     22388     22390     22387     22386     22388     22432
     22388     22432     22435     22436     22388     22432     22435     22437
     22388     22432     22435     22438     22389     22388     22432     22433
     22389     22388     22432     22434     22389     22388     22432     22435
     22390     22388     22432     22433     22390     22388     22432     22434
     22390     22388     22432     22435     22391     22394     22397     22398
     22391     22394     22397     22399     22391     22394     22397     22400
     22392     22391     22394     22395     22392     22391     22394     22396
     22392     22391     22394     22397     22393     22391     22394     22395
     22393     22391     22394     22396     22393     22391     22394     22397
     22394     22397     22400     22401     22394     22397     22400     22402
     22394     22397     22400     22403     22395     22394     22397     22398
     22395     22394     22397     22399     22395     22394     22397     22400
     22396     22394     22397     22398     22396     22394     22397     22399
     22396     22394     22397     22400     22397     22400     22403     22404
     22397     22400     22403     22405     22397     22400     22403     22406
     22398     22397     22400     22401     22398     22397     22400     22402
     22398     22397     22400     22403     22399     22397     22400     22401
     22399     22397     22400     22402     22399     22397     22400     22403
     22400     22403     22406     22407     22400     22403     22406     22408
     22400     22403     22406     22409     22401     22400     22403     22404
     22401     22400     22403     22405     22401     22400     22403     22406
     22402     22400     22403     22404     22402     22400     22403     22405
     22402     22400     22403     22406     22403     22406     22409     22410
     22403     22406     22409     22411     22404     22403     22406     22407
     22404     22403     22406     22408     22404     22403     22406     22409
     22405     22403     22406     22407     22405     22403     22406     22408
     22405     22403     22406     22409     22406     22409     22411     22412
     22406     22409     22411     22413     22407     22406     22409     22410
     22407     22406     22409     22411     22408     22406     22409     22410
     22408     22406     22409     22411     22409     22411     22413     22414
     22409     22411     22413     22415     22409     22411     22413     22416
     22410     22409     22411     22412     22410     22409     22411     22413
     22411     22413     22416     22417     22411     22413     22416     22418
     22411     22413     22416     22419     22412     22411     22413     22414
     22412     22411     22413     22415     22412     22411     22413     22416
     22413     22416     22419     22420     22413     22416     22419     22421
     22413     22416     22419     22422     22414     22413     22416     22417
     22414     22413     22416     22418     22414     22413     22416     22419
     22415     22413     22416     22417     22415     22413     22416     22418
     22415     22413     22416     22419     22416     22419     22422     22423
     22416     22419     22422     22424     22416     22419     22422     22425
     22417     22416     22419     22420     22417     22416     22419     22421
     22417     22416     22419     22422     22418     22416     22419     22420
     22418     22416     22419     22421     22418     22416     22419     22422
     22419     22422     22425     22426     22419     22422     22425     22427
     22419     22422     22425     22428     22420     22419     22422     22423
     22420     22419     22422     22424     22420     22419     22422     22425
     22421     22419     22422     22423     22421     22419     22422     22424
     22421     22419     22422     22425     22422     22425     22428     22429
     22422     22425     22428     22430     22422     22425     22428     22431
     22423     22422     22425     22426     22423     22422     22425     22427
     22423     22422     22425     22428     22424     22422     22425     22426
     22424     22422     22425     22427     22424     22422     22425     22428
     22426     22425     22428     22429     22426     22425     22428     22430
     22426     22425     22428     22431     22427     22425     22428     22429
     22427     22425     22428     22430     22427     22425     22428     22431
     22432     22435     22438     22439     22432     22435     22438     22440
     22432     22435     22438     22441     22433     22432     22435     22436
     22433     22432     22435     22437     22433     22432     22435     22438
     22434     22432     22435     22436     22434     22432     22435     22437
     22434     22432     22435     22438     22435     22438     22441     22442
     22435     22438     22441     22443     22435     22438     22441     22444
     22436     22435     22438     22439     22436     22435     22438     22440
     22436     22435     22438     22441     22437     22435     22438     22439
     22437     22435     22438     22440     22437     22435     22438     22441
     22438     22441     22444     22445     22438     22441     22444     22446
     22438     22441     22444     22447     22439     22438     22441     22442
     22439     22438     22441     22443     22439     22438     22441     22444
     22440     22438     22441     22442     22440     22438     22441     22443
     22440     22438     22441     22444     22441     22444     22447     22448
     22441     22444     22447     22449     22441     22444     22447     22450
     22442     22441     22444     22445     22442     22441     22444     22446
     22442     22441     22444     22447     22443     22441     22444     22445
     22443     22441     22444     22446     22443     22441     22444     22447
     22444     22447     22450     22451     22444     22447     22450     22452
     22444     22447     22450     22453     22445     22444     22447     22448
     22445     22444     22447     22449     22445     22444     22447     22450
     22446     22444     22447     22448     22446     22444     22447     22449
     22446     22444     22447     22450     22447     22450     22453     22454
     22447     22450     22453     22455     22447     22450     22453     22456
     22448     22447     22450     22451     22448     22447     22450     22452
     22448     22447     22450     22453     22449     22447     22450     22451
     22449     22447     22450     22452     22449     22447     22450     22453
     22450     22453     22456     22457     22450     22453     22456     22458
     22450     22453     22456     22459     22451     22450     22453     22454
     22451     22450     22453     22455     22451     22450     22453     22456
     22452     22450     22453     22454     22452     22450     22453     22455
     22452     22450     22453     22456     22453     22456     22459     22460
     22453     22456     22459     22461     22453     22456     22459     22462
     22454     22453     22456     22457     22454     22453     22456     22458
     22454     22453     22456     22459     22455     22453     22456     22457
     22455     22453     22456     22458     22455     22453     22456     22459
     22456     22459     22462     22463     22456     22459     22462     22464
     22456     22459     22462     22465     22457     22456     22459     22460
     22457     22456     22459     22461     22457     22456     22459     22462
     22458     22456     22459     22460     22458     22456     22459     22461
     22458     22456     22459     22462     22459     22462     22465     22466
     22459     22462     22465     22467     22459     22462     22465     22468
     22460     22459     22462     22463     22460     22459     22462     22464
     22460     22459     22462     22465     22461     22459     22462     22463
     22461     22459     22462     22464     22461     22459     22462     22465
     22462     22465     22468     22469     22462     22465     22468     22470
     22462     22465     22468     22471     22463     22462     22465     22466
     22463     22462     22465     22467     22463     22462     22465     22468
     22464     22462     22465     22466     22464     22462     22465     22467
     22464     22462     22465     22468     22465     22468     22471     22472
     22465     22468     22471     22473     22465     22468     22471     22474
     22466     22465     22468     22469     22466     22465     22468     22470
     22466     22465     22468     22471     22467     22465     22468     22469
     22467     22465     22468     22470     22467     22465     22468     22471
     22469     22468     22471     22472     22469     22468     22471     22473
     22469     22468     22471     22474     22470     22468     22471     22472
     22470     22468     22471     22473     22470     22468     22471     22474
     22475     22479     22482     22483     22475     22479     22482     22484
     22475     22479     22482     22489     22476     22475     22479     22480
     22476     22475     22479     22481     22476     22475     22479     22482
     22477     22475     22479     22480     22477     22475     22479     22481
     22477     22475     22479     22482     22478     22475     22479     22480
     22478     22475     22479     22481     22478     22475     22479     22482
     22479     22482     22489     22485     22480     22479     22482     22483
     22480     22479     22482     22484     22480     22479     22482     22489
     22481     22479     22482     22483     22481     22479     22482     22484
     22481     22479     22482     22489     22482     22489     22485     22486
     22482     22489     22485     22487     22482     22489     22485     22488
     22483     22482     22489     22485     22484     22482     22489     22485
     22485     22488     22490     22491     22485     22488     22490     22492
     22485     22488     22490     22493     22486     22485     22488     22490
     22487     22485     22488     22490     22488     22490     22493     22494
     22488     22490     22493     22495     22488     22490     22493     22501
     22489     22485     22488     22490     22490     22493     22495     22496
     22490     22493     22501     22502     22490     22493     22501     22503
     22490     22493     22501     22504     22491     22490     22493     22494
     22491     22490     22493     22495     22491     22490     22493     22501
     22492     22490     22493     22494     22492     22490     22493     22495
     22492     22490     22493     22501     22493     22495     22496     22497
     22493     22495     22496     22498     22493     22501     22504     22505
     22494     22493     22495     22496     22494     22493     22501     22502
     22494     22493     22501     22503     22494     22493     22501     22504
     22495     22493     22501     22502     22495     22493     22501     22503
     22495     22493     22501     22504     22495     22496     22498     22499
     22495     22496     22498     22500     22495     22496     22498     22510
     22496     22495     22493     22501     22496     22498     22510     22511
     22496     22498     22510     22512     22496     22498     22510     22513
     22497     22496     22498     22499     22497     22496     22498     22500
     22497     22496     22498     22510     22498     22510     22513     22514
     22498     22510     22513     22515     22498     22510     22513     22516
     22499     22498     22510     22511     22499     22498     22510     22512
     22499     22498     22510     22513     22500     22498     22510     22511
     22500     22498     22510     22512     22500     22498     22510     22513
     22501     22504     22505     22506     22501     22504     22505     22507
     22502     22501     22504     22505     22503     22501     22504     22505
     22504     22505     22507     22508     22504     22505     22507     22509
     22504     22505     22507     22551     22505     22507     22551     22552
     22505     22507     22551     22553     22505     22507     22551     22554
     22506     22505     22507     22508     22506     22505     22507     22509
     22506     22505     22507     22551     22507     22551     22554     22555
     22507     22551     22554     22556     22507     22551     22554     22557
     22508     22507     22551     22552     22508     22507     22551     22553
     22508     22507     22551     22554     22509     22507     22551     22552
     22509     22507     22551     22553     22509     22507     22551     22554
     22510     22513     22516     22517     22510     22513     22516     22518
     22510     22513     22516     22519     22511     22510     22513     22514
     22511     22510     22513     22515     22511     22510     22513     22516
     22512     22510     22513     22514     22512     22510     22513     22515
     22512     22510     22513     22516     22513     22516     22519     22520
     22513     22516     22519     22521     22513     22516     22519     22522
     22514     22513     22516     22517     22514     22513     22516     22518
     22514     22513     22516     22519     22515     22513     22516     22517
     22515     22513     22516     22518     22515     22513     22516     22519
     22516     22519     22522     22523     22516     22519     22522     22524
     22516     22519     22522     22525     22517     22516     22519     22520
     22517     22516     22519     22521     22517     22516     22519     22522
     22518     22516     22519     22520     22518     22516     22519     22521
     22518     22516     22519     22522     22519     22522     22525     22526
     22519     22522     22525     22527     22519     22522     22525     22528
     22520     22519     22522     22523     22520     22519     22522     22524
     22520     22519     22522     22525     22521     22519     22522     22523
     22521     22519     22522     22524     22521     22519     22522     22525
     22522     22525     22528     22529     22522     22525     22528     22530
     22523     22522     22525     22526     22523     22522     22525     22527
     22523     22522     22525     22528     22524     22522     22525     22526
     22524     22522     22525     22527     22524     22522     22525     22528
     22525     22528     22530     22531     22525     22528     22530     22532
     22526     22525     22528     22529     22526     22525     22528     22530
     22527     22525     22528     22529     22527     22525     22528     22530
     22528     22530     22532     22533     22528     22530     22532     22534
     22528     22530     22532     22535     22529     22528     22530     22531
     22529     22528     22530     22532     22530     22532     22535     22536
     22530     22532     22535     22537     22530     22532     22535     22538
     22531     22530     22532     22533     22531     22530     22532     22534
     22531     22530     22532     22535     22532     22535     22538     22539
     22532     22535     22538     22540     22532     22535     22538     22541
     22533     22532     22535     22536     22533     22532     22535     22537
     22533     22532     22535     22538     22534     22532     22535     22536
     22534     22532     22535     22537     22534     22532     22535     22538
     22535     22538     22541     22542     22535     22538     22541     22543
     22535     22538     22541     22544     22536     22535     22538     22539
     22536     22535     22538     22540     22536     22535     22538     22541
     22537     22535     22538     22539     22537     22535     22538     22540
     22537     22535     22538     22541     22538     22541     22544     22545
     22538     22541     22544     22546     22538     22541     22544     22547
     22539     22538     22541     22542     22539     22538     22541     22543
     22539     22538     22541     22544     22540     22538     22541     22542
     22540     22538     22541     22543     22540     22538     22541     22544
     22541     22544     22547     22548     22541     22544     22547     22549
     22541     22544     22547     22550     22542     22541     22544     22545
     22542     22541     22544     22546     22542     22541     22544     22547
     22543     22541     22544     22545     22543     22541     22544     22546
     22543     22541     22544     22547     22545     22544     22547     22548
     22545     22544     22547     22549     22545     22544     22547     22550
     22546     22544     22547     22548     22546     22544     22547     22549
     22546     22544     22547     22550     22551     22554     22557     22558
     22551     22554     22557     22559     22551     22554     22557     22560
     22552     22551     22554     22555     22552     22551     22554     22556
     22552     22551     22554     22557     22553     22551     22554     22555
     22553     22551     22554     22556     22553     22551     22554     22557
     22554     22557     22560     22561     22554     22557     22560     22562
     22554     22557     22560     22563     22555     22554     22557     22558
     22555     22554     22557     22559     22555     22554     22557     22560
     22556     22554     22557     22558     22556     22554     22557     22559
     22556     22554     22557     22560     22557     22560     22563     22564
     22557     22560     22563     22565     22557     22560     22563     22566
     22558     22557     22560     22561     22558     22557     22560     22562
     22558     22557     22560     22563     22559     22557     22560     22561
     22559     22557     22560     22562     22559     22557     22560     22563
     22560     22563     22566     22567     22560     22563     22566     22568
     22560     22563     22566     22569     22561     22560     22563     22564
     22561     22560     22563     22565     22561     22560     22563     22566
     22562     22560     22563     22564     22562     22560     22563     22565
     22562     22560     22563     22566     22563     22566     22569     22570
     22563     22566     22569     22571     22564     22563     22566     22567
     22564     22563     22566     22568     22564     22563     22566     22569
     22565     22563     22566     22567     22565     22563     22566     22568
     22565     22563     22566     22569     22566     22569     22571     22572
     22566     22569     22571     22573     22567     22566     22569     22570
     22567     22566     22569     22571     22568     22566     22569     22570
     22568     22566     22569     22571     22569     22571     22573     22574
     22569     22571     22573     22575     22569     22571     22573     22576
     22570     22569     22571     22572     22570     22569     22571     22573
     22571     22573     22576     22577     22571     22573     22576     22578
     22571     22573     22576     22579     22572     22571     22573     22574
     22572     22571     22573     22575     22572     22571     22573     22576
     22573     22576     22579     22580     22573     22576     22579     22581
     22573     22576     22579     22582     22574     22573     22576     22577
     22574     22573     22576     22578     22574     22573     22576     22579
     22575     22573     22576     22577     22575     22573     22576     22578
     22575     22573     22576     22579     22576     22579     22582     22583
     22576     22579     22582     22584     22576     22579     22582     22585
     22577     22576     22579     22580     22577     22576     22579     22581
     22577     22576     22579     22582     22578     22576     22579     22580
     22578     22576     22579     22581     22578     22576     22579     22582
     22579     22582     22585     22586     22579     22582     22585     22587
     22579     22582     22585     22588     22580     22579     22582     22583
     22580     22579     22582     22584     22580     22579     22582     22585
     22581     22579     22582     22583     22581     22579     22582     22584
     22581     22579     22582     22585     22582     22585     22588     22589
     22582     22585     22588     22590     22582     22585     22588     22591
     22583     22582     22585     22586     22583     22582     22585     22587
     22583     22582     22585     22588     22584     22582     22585     22586
     22584     22582     22585     22587     22584     22582     22585     22588
     22585     22588     22591     22592     22585     22588     22591     22593
     22585     22588     22591     22594     22586     22585     22588     22589
     22586     22585     22588     22590     22586     22585     22588     22591
     22587     22585     22588     22589     22587     22585     22588     22590
     22587     22585     22588     22591     22588     22591     22594     22595
     22588     22591     22594     22596     22588     22591     22594     22597
     22589     22588     22591     22592     22589     22588     22591     22593
     22589     22588     22591     22594     22590     22588     22591     22592
     22590     22588     22591     22593     22590     22588     22591     22594
     22592     22591     22594     22595     22592     22591     22594     22596
     22592     22591     22594     22597     22593     22591     22594     22595
     22593     22591     22594     22596     22593     22591     22594     22597
     22598     22602     22605     22606     22598     22602     22605     22607
     22598     22602     22605     22612     22599     22598     22602     22603
     22599     22598     22602     22604     22599     22598     22602     22605
     22600     22598     22602     22603     22600     22598     22602     22604
     22600     22598     22602     22605     22601     22598     22602     22603
     22601     22598     22602     22604     22601     22598     22602     22605
     22602     22605     22612     22608     22603     22602     22605     22606
     22603     22602     22605     22607     22603     22602     22605     22612
     22604     22602     22605     22606     22604     22602     22605     22607
     22604     22602     22605     22612     22605     22612     22608     22609
     22605     22612     22608     22610     22605     22612     22608     22611
     22606     22605     22612     22608     22607     22605     22612     22608
     22608     22611     22613     22614     22608     22611     22613     22615
     22608     22611     22613     22616     22609     22608     22611     22613
     22610     22608     22611     22613     22611     22613     22616     22617
     22611     22613     22616     22618     22611     22613     22616     22624
     22612     22608     22611     22613     22613     22616     22618     22619
     22613     22616     22624     22625     22613     22616     22624     22626
     22613     22616     22624     22627     22614     22613     22616     22617
     22614     22613     22616     22618     22614     22613     22616     22624
     22615     22613     22616     22617     22615     22613     22616     22618
     22615     22613     22616     22624     22616     22618     22619     22620
     22616     22618     22619     22621     22616     22624     22627     22628
     22617     22616     22618     22619     22617     22616     22624     22625
     22617     22616     22624     22626     22617     22616     22624     22627
     22618     22616     22624     22625     22618     22616     22624     22626
     22618     22616     22624     22627     22618     22619     22621     22622
     22618     22619     22621     22623     22618     22619     22621     22633
     22619     22618     22616     22624     22619     22621     22633     22634
     22619     22621     22633     22635     22619     22621     22633     22636
     22620     22619     22621     22622     22620     22619     22621     22623
     22620     22619     22621     22633     22621     22633     22636     22637
     22621     22633     22636     22638     22621     22633     22636     22639
     22622     22621     22633     22634     22622     22621     22633     22635
     22622     22621     22633     22636     22623     22621     22633     22634
     22623     22621     22633     22635     22623     22621     22633     22636
     22624     22627     22628     22629     22624     22627     22628     22630
     22625     22624     22627     22628     22626     22624     22627     22628
     22627     22628     22630     22631     22627     22628     22630     22632
     22627     22628     22630     22677     22628     22630     22677     22678
     22628     22630     22677     22679     22628     22630     22677     22680
     22629     22628     22630     22631     22629     22628     22630     22632
     22629     22628     22630     22677     22630     22677     22680     22681
     22630     22677     22680     22682     22630     22677     22680     22683
     22631     22630     22677     22678     22631     22630     22677     22679
     22631     22630     22677     22680     22632     22630     22677     22678
     22632     22630     22677     22679     22632     22630     22677     22680
     22633     22636     22639     22640     22633     22636     22639     22641
     22633     22636     22639     22642     22634     22633     22636     22637
     22634     22633     22636     22638     22634     22633     22636     22639
     22635     22633     22636     22637     22635     22633     22636     22638
     22635     22633     22636     22639     22636     22639     22642     22643
     22636     22639     22642     22644     22636     22639     22642     22645
     22637     22636     22639     22640     22637     22636     22639     22641
     22637     22636     22639     22642     22638     22636     22639     22640
     22638     22636     22639     22641     22638     22636     22639     22642
     22639     22642     22645     22646     22639     22642     22645     22647
     22639     22642     22645     22648     22640     22639     22642     22643
     22640     22639     22642     22644     22640     22639     22642     22645
     22641     22639     22642     22643     22641     22639     22642     22644
     22641     22639     22642     22645     22642     22645     22648     22649
     22642     22645     22648     22650     22642     22645     22648     22651
     22643     22642     22645     22646     22643     22642     22645     22647
     22643     22642     22645     22648     22644     22642     22645     22646
     22644     22642     22645     22647     22644     22642     22645     22648
     22645     22648     22651     22652     22645     22648     22651     22653
     22645     22648     22651     22656     22646     22645     22648     22649
     22646     22645     22648     22650     22646     22645     22648     22651
     22647     22645     22648     22649     22647     22645     22648     22650
     22647     22645     22648     22651     22648     22651     22653     22654
     22648     22651     22653     22655     22648     22651     22653     22656
     22648     22651     22656     22653     22648     22651     22656     22657
     22648     22651     22656     22658     22649     22648     22651     22652
     22649     22648     22651     22653     22649     22648     22651     22656
     22650     22648     22651     22652     22650     22648     22651     22653
     22650     22648     22651     22656     22651     22653     22656     22657
     22651     22653     22656     22658     22651     22656     22653     22654
     22651     22656     22653     22655     22651     22656     22658     22659
     22651     22656     22658     22660     22651     22656     22658     22661
     22652     22651     22653     22654     22652     22651     22653     22655
     22652     22651     22653     22656     22652     22651     22656     22653
     22652     22651     22656     22657     22652     22651     22656     22658
     22653     22651     22656     22657     22653     22651     22656     22658
     22653     22656     22658     22659     22653     22656     22658     22660
     22653     22656     22658     22661     22654     22653     22651     22656
     22654     22653     22656     22657     22654     22653     22656     22658
     22655     22653     22651     22656     22655     22653     22656     22657
     22655     22653     22656     22658     22656     22658     22661     22662
     22656     22658     22661     22663     22656     22658     22661     22664
     22657     22656     22658     22659     22657     22656     22658     22660
     22657     22656     22658     22661     22658     22661     22664     22665
     22658     22661     22664     22666     22658     22661     22664     22667
     22659     22658     22661     22662     22659     22658     22661     22663
     22659     22658     22661     22664     22660     22658     22661     22662
     22660     22658     22661     22663     22660     22658     22661     22664
     22661     22664     22667     22668     22661     22664     22667     22669
     22661     22664     22667     22670     22662     22661     22664     22665
     22662     22661     22664     22666     22662     22661     22664     22667
     22663     22661     22664     22665     22663     22661     22664     22666
     22663     22661     22664     22667     22664     22667     22670     22671
     22664     22667     22670     22672     22664     22667     22670     22673
     22665     22664     22667     22668     22665     22664     22667     22669
     22665     22664     22667     22670     22666     22664     22667     22668
     22666     22664     22667     22669     22666     22664     22667     22670
     22667     22670     22673     22674     22667     22670     22673     22675
     22667     22670     22673     22676     22668     22667     22670     22671
     22668     22667     22670     22672     22668     22667     22670     22673
     22669     22667     22670     22671     22669     22667     22670     22672
     22669     22667     22670     22673     22671     22670     22673     22674
     22671     22670     22673     22675     22671     22670     22673     22676
     22672     22670     22673     22674     22672     22670     22673     22675
     22672     22670     22673     22676     22677     22680     22683     22684
     22677     22680     22683     22685     22677     22680     22683     22686
     22678     22677     22680     22681     22678     22677     22680     22682
     22678     22677     22680     22683     22679     22677     22680     22681
     22679     22677     22680     22682     22679     22677     22680     22683
     22680     22683     22686     22687     22680     22683     22686     22688
     22680     22683     22686     22689     22681     22680     22683     22684
     22681     22680     22683     22685     22681     22680     22683     22686
     22682     22680     22683     22684     22682     22680     22683     22685
     22682     22680     22683     22686     22683     22686     22689     22690
     22683     22686     22689     22691     22683     22686     22689     22692
     22684     22683     22686     22687     22684     22683     22686     22688
     22684     22683     22686     22689     22685     22683     22686     22687
     22685     22683     22686     22688     22685     22683     22686     22689
     22686     22689     22692     22693     22686     22689     22692     22694
     22686     22689     22692     22695     22687     22686     22689     22690
     22687     22686     22689     22691     22687     22686     22689     22692
     22688     22686     22689     22690     22688     22686     22689     22691
     22688     22686     22689     22692     22689     22692     22695     22696
     22689     22692     22695     22697     22689     22692     22695     22698
     22690     22689     22692     22693     22690     22689     22692     22694
     22690     22689     22692     22695     22691     22689     22692     22693
     22691     22689     22692     22694     22691     22689     22692     22695
     22692     22695     22698     22699     22692     22695     22698     22700
     22692     22695     22698     22701     22693     22692     22695     22696
     22693     22692     22695     22697     22693     22692     22695     22698
     22694     22692     22695     22696     22694     22692     22695     22697
     22694     22692     22695     22698     22695     22698     22701     22702
     22695     22698     22701     22703     22695     22698     22701     22704
     22696     22695     22698     22699     22696     22695     22698     22700
     22696     22695     22698     22701     22697     22695     22698     22699
     22697     22695     22698     22700     22697     22695     22698     22701
     22698     22701     22704     22705     22698     22701     22704     22706
     22698     22701     22704     22707     22699     22698     22701     22702
     22699     22698     22701     22703     22699     22698     22701     22704
     22700     22698     22701     22702     22700     22698     22701     22703
     22700     22698     22701     22704     22701     22704     22707     22708
     22701     22704     22707     22709     22701     22704     22707     22710
     22702     22701     22704     22705     22702     22701     22704     22706
     22702     22701     22704     22707     22703     22701     22704     22705
     22703     22701     22704     22706     22703     22701     22704     22707
     22704     22707     22710     22711     22704     22707     22710     22712
     22704     22707     22710     22713     22705     22704     22707     22708
     22705     22704     22707     22709     22705     22704     22707     22710
     22706     22704     22707     22708     22706     22704     22707     22709
     22706     22704     22707     22710     22707     22710     22713     22714
     22707     22710     22713     22715     22707     22710     22713     22716
     22708     22707     22710     22711     22708     22707     22710     22712
     22708     22707     22710     22713     22709     22707     22710     22711
     22709     22707     22710     22712     22709     22707     22710     22713
     22710     22713     22716     22717     22710     22713     22716     22718
     22710     22713     22716     22719     22711     22710     22713     22714
     22711     22710     22713     22715     22711     22710     22713     22716
     22712     22710     22713     22714     22712     22710     22713     22715
     22712     22710     22713     22716     22714     22713     22716     22717
     22714     22713     22716     22718     22714     22713     22716     22719
     22715     22713     22716     22717     22715     22713     22716     22718
     22715     22713     22716     22719     22720     22724     22727     22728
     22720     22724     22727     22729     22720     22724     22727     22734
     22721     22720     22724     22725     22721     22720     22724     22726
     22721     22720     22724     22727     22722     22720     22724     22725
     22722     22720     22724     22726     22722     22720     22724     22727
     22723     22720     22724     22725     22723     22720     22724     22726
     22723     22720     22724     22727     22724     22727     22734     22730
     22725     22724     22727     22728     22725     22724     22727     22729
     22725     22724     22727     22734     22726     22724     22727     22728
     22726     22724     22727     22729     22726     22724     22727     22734
     22727     22734     22730     22731     22727     22734     22730     22732
     22727     22734     22730     22733     22728     22727     22734     22730
     22729     22727     22734     22730     22730     22733     22735     22736
     22730     22733     22735     22737     22730     22733     22735     22738
     22731     22730     22733     22735     22732     22730     22733     22735
     22733     22735     22738     22739     22733     22735     22738     22740
     22733     22735     22738     22746     22734     22730     22733     22735
     22735     22738     22740     22741     22735     22738     22746     22747
     22735     22738     22746     22748     22735     22738     22746     22749
     22736     22735     22738     22739     22736     22735     22738     22740
     22736     22735     22738     22746     22737     22735     22738     22739
     22737     22735     22738     22740     22737     22735     22738     22746
     22738     22740     22741     22742     22738     22740     22741     22743
     22738     22746     22749     22750     22739     22738     22740     22741
     22739     22738     22746     22747     22739     22738     22746     22748
     22739     22738     22746     22749     22740     22738     22746     22747
     22740     22738     22746     22748     22740     22738     22746     22749
     22740     22741     22743     22744     22740     22741     22743     22745
     22740     22741     22743     22755     22741     22740     22738     22746
     22741     22743     22755     22756     22741     22743     22755     22757
     22741     22743     22755     22758     22742     22741     22743     22744
     22742     22741     22743     22745     22742     22741     22743     22755
     22743     22755     22758     22759     22743     22755     22758     22760
     22743     22755     22758     22761     22744     22743     22755     22756
     22744     22743     22755     22757     22744     22743     22755     22758
     22745     22743     22755     22756     22745     22743     22755     22757
     22745     22743     22755     22758     22746     22749     22750     22751
     22746     22749     22750     22752     22747     22746     22749     22750
     22748     22746     22749     22750     22749     22750     22752     22753
     22749     22750     22752     22754     22749     22750     22752     22799
     22750     22752     22799     22800     22750     22752     22799     22801
     22750     22752     22799     22802     22751     22750     22752     22753
     22751     22750     22752     22754     22751     22750     22752     22799
     22752     22799     22802     22803     22752     22799     22802     22804
     22752     22799     22802     22805     22753     22752     22799     22800
     22753     22752     22799     22801     22753     22752     22799     22802
     22754     22752     22799     22800     22754     22752     22799     22801
     22754     22752     22799     22802     22755     22758     22761     22762
     22755     22758     22761     22763     22755     22758     22761     22764
     22756     22755     22758     22759     22756     22755     22758     22760
     22756     22755     22758     22761     22757     22755     22758     22759
     22757     22755     22758     22760     22757     22755     22758     22761
     22758     22761     22764     22765     22758     22761     22764     22766
     22758     22761     22764     22767     22759     22758     22761     22762
     22759     22758     22761     22763     22759     22758     22761     22764
     22760     22758     22761     22762     22760     22758     22761     22763
     22760     22758     22761     22764     22761     22764     22767     22768
     22761     22764     22767     22769     22761     22764     22767     22770
     22762     22761     22764     22765     22762     22761     22764     22766
     22762     22761     22764     22767     22763     22761     22764     22765
     22763     22761     22764     22766     22763     22761     22764     22767
     22764     22767     22770     22771     22764     22767     22770     22772
     22764     22767     22770     22773     22765     22764     22767     22768
     22765     22764     22767     22769     22765     22764     22767     22770
     22766     22764     22767     22768     22766     22764     22767     22769
     22766     22764     22767     22770     22767     22770     22773     22774
     22767     22770     22773     22775     22767     22770     22773     22778
     22768     22767     22770     22771     22768     22767     22770     22772
     22768     22767     22770     22773     22769     22767     22770     22771
     22769     22767     22770     22772     22769     22767     22770     22773
     22770     22773     22775     22776     22770     22773     22775     22777
     22770     22773     22775     22778     22770     22773     22778     22775
     22770     22773     22778     22779     22770     22773     22778     22780
     22771     22770     22773     22774     22771     22770     22773     22775
     22771     22770     22773     22778     22772     22770     22773     22774
     22772     22770     22773     22775     22772     22770     22773     22778
     22773     22775     22778     22779     22773     22775     22778     22780
     22773     22778     22775     22776     22773     22778     22775     22777
     22773     22778     22780     22781     22773     22778     22780     22782
     22773     22778     22780     22783     22774     22773     22775     22776
     22774     22773     22775     22777     22774     22773     22775     22778
     22774     22773     22778     22775     22774     22773     22778     22779
     22774     22773     22778     22780     22775     22773     22778     22779
     22775     22773     22778     22780     22775     22778     22780     22781
     22775     22778     22780     22782     22775     22778     22780     22783
     22776     22775     22773     22778     22776     22775     22778     22779
     22776     22775     22778     22780     22777     22775     22773     22778
     22777     22775     22778     22779     22777     22775     22778     22780
     22778     22780     22783     22784     22778     22780     22783     22785
     22778     22780     22783     22786     22779     22778     22780     22781
     22779     22778     22780     22782     22779     22778     22780     22783
     22780     22783     22786     22787     22780     22783     22786     22788
     22780     22783     22786     22789     22781     22780     22783     22784
     22781     22780     22783     22785     22781     22780     22783     22786
     22782     22780     22783     22784     22782     22780     22783     22785
     22782     22780     22783     22786     22783     22786     22789     22790
     22783     22786     22789     22791     22783     22786     22789     22792
     22784     22783     22786     22787     22784     22783     22786     22788
     22784     22783     22786     22789     22785     22783     22786     22787
     22785     22783     22786     22788     22785     22783     22786     22789
     22786     22789     22792     22793     22786     22789     22792     22794
     22786     22789     22792     22795     22787     22786     22789     22790
     22787     22786     22789     22791     22787     22786     22789     22792
     22788     22786     22789     22790     22788     22786     22789     22791
     22788     22786     22789     22792     22789     22792     22795     22796
     22789     22792     22795     22797     22789     22792     22795     22798
     22790     22789     22792     22793     22790     22789     22792     22794
     22790     22789     22792     22795     22791     22789     22792     22793
     22791     22789     22792     22794     22791     22789     22792     22795
     22793     22792     22795     22796     22793     22792     22795     22797
     22793     22792     22795     22798     22794     22792     22795     22796
     22794     22792     22795     22797     22794     22792     22795     22798
     22799     22802     22805     22806     22799     22802     22805     22807
     22799     22802     22805     22808     22800     22799     22802     22803
     22800     22799     22802     22804     22800     22799     22802     22805
     22801     22799     22802     22803     22801     22799     22802     22804
     22801     22799     22802     22805     22802     22805     22808     22809
     22802     22805     22808     22810     22802     22805     22808     22811
     22803     22802     22805     22806     22803     22802     22805     22807
     22803     22802     22805     22808     22804     22802     22805     22806
     22804     22802     22805     22807     22804     22802     22805     22808
     22805     22808     22811     22812     22805     22808     22811     22813
     22805     22808     22811     22814     22806     22805     22808     22809
     22806     22805     22808     22810     22806     22805     22808     22811
     22807     22805     22808     22809     22807     22805     22808     22810
     22807     22805     22808     22811     22808     22811     22814     22815
     22808     22811     22814     22816     22808     22811     22814     22817
     22809     22808     22811     22812     22809     22808     22811     22813
     22809     22808     22811     22814     22810     22808     22811     22812
     22810     22808     22811     22813     22810     22808     22811     22814
     22811     22814     22817     22818     22811     22814     22817     22819
     22811     22814     22817     22820     22812     22811     22814     22815
     22812     22811     22814     22816     22812     22811     22814     22817
     22813     22811     22814     22815     22813     22811     22814     22816
     22813     22811     22814     22817     22814     22817     22820     22821
     22814     22817     22820     22822     22814     22817     22820     22823
     22815     22814     22817     22818     22815     22814     22817     22819
     22815     22814     22817     22820     22816     22814     22817     22818
     22816     22814     22817     22819     22816     22814     22817     22820
     22817     22820     22823     22824     22817     22820     22823     22825
     22817     22820     22823     22826     22818     22817     22820     22821
     22818     22817     22820     22822     22818     22817     22820     22823
     22819     22817     22820     22821     22819     22817     22820     22822
     22819     22817     22820     22823     22820     22823     22826     22827
     22820     22823     22826     22828     22820     22823     22826     22829
     22821     22820     22823     22824     22821     22820     22823     22825
     22821     22820     22823     22826     22822     22820     22823     22824
     22822     22820     22823     22825     22822     22820     22823     22826
     22823     22826     22829     22830     22823     22826     22829     22831
     22823     22826     22829     22832     22824     22823     22826     22827
     22824     22823     22826     22828     22824     22823     22826     22829
     22825     22823     22826     22827     22825     22823     22826     22828
     22825     22823     22826     22829     22826     22829     22832     22833
     22826     22829     22832     22834     22826     22829     22832     22835
     22827     22826     22829     22830     22827     22826     22829     22831
     22827     22826     22829     22832     22828     22826     22829     22830
     22828     22826     22829     22831     22828     22826     22829     22832
     22829     22832     22835     22836     22829     22832     22835     22837
     22829     22832     22835     22838     22830     22829     22832     22833
     22830     22829     22832     22834     22830     22829     22832     22835
     22831     22829     22832     22833     22831     22829     22832     22834
     22831     22829     22832     22835     22833     22832     22835     22836
     22833     22832     22835     22837     22833     22832     22835     22838
     22834     22832     22835     22836     22834     22832     22835     22837
     22834     22832     22835     22838     22839     22844     22846     22847
     22839     22844     22848     22849     22839     22844     22848     22850
     22839     22844     22848     22855     22840     22839     22842     22843
     22840     22839     22844     22845     22840     22839     22844     22846
     22840     22839     22844     22848     22841     22839     22842     22843
     22841     22839     22844     22845     22841     22839     22844     22846
     22841     22839     22844     22848     22842     22839     22844     22845
     22842     22839     22844     22846     22842     22839     22844     22848
     22843     22842     22839     22844     22844     22848     22855     22851
     22845     22844     22846     22847     22845     22844     22848     22849
     22845     22844     22848     22850     22845     22844     22848     22855
     22846     22844     22848     22849     22846     22844     22848     22850
     22846     22844     22848     22855     22847     22846     22844     22848
     22848     22855     22851     22852     22848     22855     22851     22853
     22848     22855     22851     22854     22849     22848     22855     22851
     22850     22848     22855     22851     22851     22854     22856     22857
     22851     22854     22856     22858     22851     22854     22856     22859
     22852     22851     22854     22856     22853     22851     22854     22856
     22854     22856     22859     22860     22854     22856     22859     22861
     22854     22856     22859     22867     22855     22851     22854     22856
     22856     22859     22861     22862     22856     22859     22867     22868
     22856     22859     22867     22869     22856     22859     22867     22870
     22857     22856     22859     22860     22857     22856     22859     22861
     22857     22856     22859     22867     22858     22856     22859     22860
     22858     22856     22859     22861     22858     22856     22859     22867
     22859     22861     22862     22863     22859     22861     22862     22864
     22859     22867     22870     22871     22860     22859     22861     22862
     22860     22859     22867     22868     22860     22859     22867     22869
     22860     22859     22867     22870     22861     22859     22867     22868
     22861     22859     22867     22869     22861     22859     22867     22870
     22861     22862     22864     22865     22861     22862     22864     22866
     22861     22862     22864     22876     22862     22861     22859     22867
     22862     22864     22876     22877     22862     22864     22876     22878
     22862     22864     22876     22879     22863     22862     22864     22865
     22863     22862     22864     22866     22863     22862     22864     22876
     22864     22876     22879     22880     22864     22876     22879     22881
     22864     22876     22879     22882     22865     22864     22876     22877
     22865     22864     22876     22878     22865     22864     22876     22879
     22866     22864     22876     22877     22866     22864     22876     22878
     22866     22864     22876     22879     22867     22870     22871     22872
     22867     22870     22871     22873     22868     22867     22870     22871
     22869     22867     22870     22871     22870     22871     22873     22874
     22870     22871     22873     22875     22870     22871     22873     22920
     22871     22873     22920     22921     22871     22873     22920     22922
     22871     22873     22920     22923     22872     22871     22873     22874
     22872     22871     22873     22875     22872     22871     22873     22920
     22873     22920     22923     22924     22873     22920     22923     22925
     22873     22920     22923     22926     22874     22873     22920     22921
     22874     22873     22920     22922     22874     22873     22920     22923
     22875     22873     22920     22921     22875     22873     22920     22922
     22875     22873     22920     22923     22876     22879     22882     22883
     22876     22879     22882     22884     22876     22879     22882     22885
     22877     22876     22879     22880     22877     22876     22879     22881
     22877     22876     22879     22882     22878     22876     22879     22880
     22878     22876     22879     22881     22878     22876     22879     22882
     22879     22882     22885     22886     22879     22882     22885     22887
     22879     22882     22885     22888     22880     22879     22882     22883
     22880     22879     22882     22884     22880     22879     22882     22885
     22881     22879     22882     22883     22881     22879     22882     22884
     22881     22879     22882     22885     22882     22885     22888     22889
     22882     22885     22888     22890     22882     22885     22888     22891
     22883     22882     22885     22886     22883     22882     22885     22887
     22883     22882     22885     22888     22884     22882     22885     22886
     22884     22882     22885     22887     22884     22882     22885     22888
     22885     22888     22891     22892     22885     22888     22891     22893
     22885     22888     22891     22894     22886     22885     22888     22889
     22886     22885     22888     22890     22886     22885     22888     22891
     22887     22885     22888     22889     22887     22885     22888     22890
     22887     22885     22888     22891     22888     22891     22894     22895
     22888     22891     22894     22896     22888     22891     22894     22899
     22889     22888     22891     22892     22889     22888     22891     22893
     22889     22888     22891     22894     22890     22888     22891     22892
     22890     22888     22891     22893     22890     22888     22891     22894
     22891     22894     22896     22897     22891     22894     22896     22898
     22891     22894     22896     22899     22891     22894     22899     22896
     22891     22894     22899     22900     22891     22894     22899     22901
     22892     22891     22894     22895     22892     22891     22894     22896
     22892     22891     22894     22899     22893     22891     22894     22895
     22893     22891     22894     22896     22893     22891     22894     22899
     22894     22896     22899     22900     22894     22896     22899     22901
     22894     22899     22896     22897     22894     22899     22896     22898
     22894     22899     22901     22902     22894     22899     22901     22903
     22894     22899     22901     22904     22895     22894     22896     22897
     22895     22894     22896     22898     22895     22894     22896     22899
     22895     22894     22899     22896     22895     22894     22899     22900
     22895     22894     22899     22901     22896     22894     22899     22900
     22896     22894     22899     22901     22896     22899     22901     22902
     22896     22899     22901     22903     22896     22899     22901     22904
     22897     22896     22894     22899     22897     22896     22899     22900
     22897     22896     22899     22901     22898     22896     22894     22899
     22898     22896     22899     22900     22898     22896     22899     22901
     22899     22901     22904     22905     22899     22901     22904     22906
     22899     22901     22904     22907     22900     22899     22901     22902
     22900     22899     22901     22903     22900     22899     22901     22904
     22901     22904     22907     22908     22901     22904     22907     22909
     22901     22904     22907     22910     22902     22901     22904     22905
     22902     22901     22904     22906     22902     22901     22904     22907
     22903     22901     22904     22905     22903     22901     22904     22906
     22903     22901     22904     22907     22904     22907     22910     22911
     22904     22907     22910     22912     22904     22907     22910     22913
     22905     22904     22907     22908     22905     22904     22907     22909
     22905     22904     22907     22910     22906     22904     22907     22908
     22906     22904     22907     22909     22906     22904     22907     22910
     22907     22910     22913     22914     22907     22910     22913     22915
     22907     22910     22913     22916     22908     22907     22910     22911
     22908     22907     22910     22912     22908     22907     22910     22913
     22909     22907     22910     22911     22909     22907     22910     22912
     22909     22907     22910     22913     22910     22913     22916     22917
     22910     22913     22916     22918     22910     22913     22916     22919
     22911     22910     22913     22914     22911     22910     22913     22915
     22911     22910     22913     22916     22912     22910     22913     22914
     22912     22910     22913     22915     22912     22910     22913     22916
     22914     22913     22916     22917     22914     22913     22916     22918
     22914     22913     22916     22919     22915     22913     22916     22917
     22915     22913     22916     22918     22915     22913     22916     22919
     22920     22923     22926     22927     22920     22923     22926     22928
     22920     22923     22926     22929     22921     22920     22923     22924
     22921     22920     22923     22925     22921     22920     22923     22926
     22922     22920     22923     22924     22922     22920     22923     22925
     22922     22920     22923     22926     22923     22926     22929     22930
     22923     22926     22929     22931     22923     22926     22929     22932
     22924     22923     22926     22927     22924     22923     22926     22928
     22924     22923     22926     22929     22925     22923     22926     22927
     22925     22923     22926     22928     22925     22923     22926     22929
     22926     22929     22932     22933     22926     22929     22932     22934
     22926     22929     22932     22935     22927     22926     22929     22930
     22927     22926     22929     22931     22927     22926     22929     22932
     22928     22926     22929     22930     22928     22926     22929     22931
     22928     22926     22929     22932     22929     22932     22935     22936
     22929     22932     22935     22937     22929     22932     22935     22938
     22930     22929     22932     22933     22930     22929     22932     22934
     22930     22929     22932     22935     22931     22929     22932     22933
     22931     22929     22932     22934     22931     22929     22932     22935
     22932     22935     22938     22939     22932     22935     22938     22940
     22932     22935     22938     22941     22933     22932     22935     22936
     22933     22932     22935     22937     22933     22932     22935     22938
     22934     22932     22935     22936     22934     22932     22935     22937
     22934     22932     22935     22938     22935     22938     22941     22942
     22935     22938     22941     22943     22935     22938     22941     22944
     22936     22935     22938     22939     22936     22935     22938     22940
     22936     22935     22938     22941     22937     22935     22938     22939
     22937     22935     22938     22940     22937     22935     22938     22941
     22938     22941     22944     22945     22938     22941     22944     22946
     22938     22941     22944     22947     22939     22938     22941     22942
     22939     22938     22941     22943     22939     22938     22941     22944
     22940     22938     22941     22942     22940     22938     22941     22943
     22940     22938     22941     22944     22941     22944     22947     22948
     22941     22944     22947     22949     22941     22944     22947     22950
     22942     22941     22944     22945     22942     22941     22944     22946
     22942     22941     22944     22947     22943     22941     22944     22945
     22943     22941     22944     22946     22943     22941     22944     22947
     22944     22947     22950     22951     22944     22947     22950     22952
     22944     22947     22950     22953     22945     22944     22947     22948
     22945     22944     22947     22949     22945     22944     22947     22950
     22946     22944     22947     22948     22946     22944     22947     22949
     22946     22944     22947     22950     22947     22950     22953     22954
     22947     22950     22953     22955     22947     22950     22953     22956
     22948     22947     22950     22951     22948     22947     22950     22952
     22948     22947     22950     22953     22949     22947     22950     22951
     22949     22947     22950     22952     22949     22947     22950     22953
     22950     22953     22956     22957     22950     22953     22956     22958
     22950     22953     22956     22959     22951     22950     22953     22954
     22951     22950     22953     22955     22951     22950     22953     22956
     22952     22950     22953     22954     22952     22950     22953     22955
     22952     22950     22953     22956     22953     22956     22959     22960
     22953     22956     22959     22961     22953     22956     22959     22962
     22954     22953     22956     22957     22954     22953     22956     22958
     22954     22953     22956     22959     22955     22953     22956     22957
     22955     22953     22956     22958     22955     22953     22956     22959
     22957     22956     22959     22960     22957     22956     22959     22961
     22957     22956     22959     22962     22958     22956     22959     22960
     22958     22956     22959     22961     22958     22956     22959     22962
     22963     22967     22970     22971     22963     22967     22970     22972
     22963     22967     22970     22977     22964     22963     22967     22968
     22964     22963     22967     22969     22964     22963     22967     22970
     22965     22963     22967     22968     22965     22963     22967     22969
     22965     22963     22967     22970     22966     22963     22967     22968
     22966     22963     22967     22969     22966     22963     22967     22970
     22967     22970     22977     22973     22968     22967     22970     22971
     22968     22967     22970     22972     22968     22967     22970     22977
     22969     22967     22970     22971     22969     22967     22970     22972
     22969     22967     22970     22977     22970     22977     22973     22974
     22970     22977     22973     22975     22970     22977     22973     22976
     22971     22970     22977     22973     22972     22970     22977     22973
     22973     22976     22978     22979     22973     22976     22978     22980
     22973     22976     22978     22981     22974     22973     22976     22978
     22975     22973     22976     22978     22976     22978     22981     22982
     22976     22978     22981     22983     22976     22978     22981     22989
     22977     22973     22976     22978     22978     22981     22983     22984
     22978     22981     22989     22990     22978     22981     22989     22991
     22978     22981     22989     22992     22979     22978     22981     22982
     22979     22978     22981     22983     22979     22978     22981     22989
     22980     22978     22981     22982     22980     22978     22981     22983
     22980     22978     22981     22989     22981     22983     22984     22985
     22981     22983     22984     22986     22981     22989     22992     22993
     22982     22981     22983     22984     22982     22981     22989     22990
     22982     22981     22989     22991     22982     22981     22989     22992
     22983     22981     22989     22990     22983     22981     22989     22991
     22983     22981     22989     22992     22983     22984     22986     22987
     22983     22984     22986     22988     22983     22984     22986     22998
     22984     22983     22981     22989     22984     22986     22998     22999
     22984     22986     22998     23000     22984     22986     22998     23001
     22985     22984     22986     22987     22985     22984     22986     22988
     22985     22984     22986     22998     22986     22998     23001     23002
     22986     22998     23001     23003     22986     22998     23001     23004
     22987     22986     22998     22999     22987     22986     22998     23000
     22987     22986     22998     23001     22988     22986     22998     22999
     22988     22986     22998     23000     22988     22986     22998     23001
     22989     22992     22993     22994     22989     22992     22993     22995
     22990     22989     22992     22993     22991     22989     22992     22993
     22992     22993     22995     22996     22992     22993     22995     22997
     22992     22993     22995     23042     22993     22995     23042     23043
     22993     22995     23042     23044     22993     22995     23042     23045
     22994     22993     22995     22996     22994     22993     22995     22997
     22994     22993     22995     23042     22995     23042     23045     23046
     22995     23042     23045     23047     22995     23042     23045     23048
     22996     22995     23042     23043     22996     22995     23042     23044
     22996     22995     23042     23045     22997     22995     23042     23043
     22997     22995     23042     23044     22997     22995     23042     23045
     22998     23001     23004     23005     22998     23001     23004     23006
     22998     23001     23004     23007     22999     22998     23001     23002
     22999     22998     23001     23003     22999     22998     23001     23004
     23000     22998     23001     23002     23000     22998     23001     23003
     23000     22998     23001     23004     23001     23004     23007     23008
     23001     23004     23007     23009     23001     23004     23007     23010
     23002     23001     23004     23005     23002     23001     23004     23006
     23002     23001     23004     23007     23003     23001     23004     23005
     23003     23001     23004     23006     23003     23001     23004     23007
     23004     23007     23010     23011     23004     23007     23010     23012
     23004     23007     23010     23013     23005     23004     23007     23008
     23005     23004     23007     23009     23005     23004     23007     23010
     23006     23004     23007     23008     23006     23004     23007     23009
     23006     23004     23007     23010     23007     23010     23013     23014
     23007     23010     23013     23015     23007     23010     23013     23016
     23008     23007     23010     23011     23008     23007     23010     23012
     23008     23007     23010     23013     23009     23007     23010     23011
     23009     23007     23010     23012     23009     23007     23010     23013
     23010     23013     23016     23017     23010     23013     23016     23018
     23010     23013     23016     23021     23011     23010     23013     23014
     23011     23010     23013     23015     23011     23010     23013     23016
     23012     23010     23013     23014     23012     23010     23013     23015
     23012     23010     23013     23016     23013     23016     23018     23019
     23013     23016     23018     23020     23013     23016     23018     23021
     23013     23016     23021     23018     23013     23016     23021     23022
     23013     23016     23021     23023     23014     23013     23016     23017
     23014     23013     23016     23018     23014     23013     23016     23021
     23015     23013     23016     23017     23015     23013     23016     23018
     23015     23013     23016     23021     23016     23018     23021     23022
     23016     23018     23021     23023     23016     23021     23018     23019
     23016     23021     23018     23020     23016     23021     23023     23024
     23016     23021     23023     23025     23016     23021     23023     23026
     23017     23016     23018     23019     23017     23016     23018     23020
     23017     23016     23018     23021     23017     23016     23021     23018
     23017     23016     23021     23022     23017     23016     23021     23023
     23018     23016     23021     23022     23018     23016     23021     23023
     23018     23021     23023     23024     23018     23021     23023     23025
     23018     23021     23023     23026     23019     23018     23016     23021
     23019     23018     23021     23022     23019     23018     23021     23023
     23020     23018     23016     23021     23020     23018     23021     23022
     23020     23018     23021     23023     23021     23023     23026     23027
     23021     23023     23026     23028     23021     23023     23026     23029
     23022     23021     23023     23024     23022     23021     23023     23025
     23022     23021     23023     23026     23023     23026     23029     23030
     23023     23026     23029     23031     23023     23026     23029     23032
     23024     23023     23026     23027     23024     23023     23026     23028
     23024     23023     23026     23029     23025     23023     23026     23027
     23025     23023     23026     23028     23025     23023     23026     23029
     23026     23029     23032     23033     23026     23029     23032     23034
     23026     23029     23032     23035     23027     23026     23029     23030
     23027     23026     23029     23031     23027     23026     23029     23032
     23028     23026     23029     23030     23028     23026     23029     23031
     23028     23026     23029     23032     23029     23032     23035     23036
     23029     23032     23035     23037     23029     23032     23035     23038
     23030     23029     23032     23033     23030     23029     23032     23034
     23030     23029     23032     23035     23031     23029     23032     23033
     23031     23029     23032     23034     23031     23029     23032     23035
     23032     23035     23038     23039     23032     23035     23038     23040
     23032     23035     23038     23041     23033     23032     23035     23036
     23033     23032     23035     23037     23033     23032     23035     23038
     23034     23032     23035     23036     23034     23032     23035     23037
     23034     23032     23035     23038     23036     23035     23038     23039
     23036     23035     23038     23040     23036     23035     23038     23041
     23037     23035     23038     23039     23037     23035     23038     23040
     23037     23035     23038     23041     23042     23045     23048     23049
     23042     23045     23048     23050     23042     23045     23048     23051
     23043     23042     23045     23046     23043     23042     23045     23047
     23043     23042     23045     23048     23044     23042     23045     23046
     23044     23042     23045     23047     23044     23042     23045     23048
     23045     23048     23051     23052     23045     23048     23051     23053
     23045     23048     23051     23054     23046     23045     23048     23049
     23046     23045     23048     23050     23046     23045     23048     23051
     23047     23045     23048     23049     23047     23045     23048     23050
     23047     23045     23048     23051     23048     23051     23054     23055
     23048     23051     23054     23056     23048     23051     23054     23057
     23049     23048     23051     23052     23049     23048     23051     23053
     23049     23048     23051     23054     23050     23048     23051     23052
     23050     23048     23051     23053     23050     23048     23051     23054
     23051     23054     23057     23058     23051     23054     23057     23059
     23051     23054     23057     23060     23052     23051     23054     23055
     23052     23051     23054     23056     23052     23051     23054     23057
     23053     23051     23054     23055     23053     23051     23054     23056
     23053     23051     23054     23057     23054     23057     23060     23061
     23054     23057     23060     23062     23054     23057     23060     23063
     23055     23054     23057     23058     23055     23054     23057     23059
     23055     23054     23057     23060     23056     23054     23057     23058
     23056     23054     23057     23059     23056     23054     23057     23060
     23057     23060     23063     23064     23057     23060     23063     23065
     23057     23060     23063     23066     23058     23057     23060     23061
     23058     23057     23060     23062     23058     23057     23060     23063
     23059     23057     23060     23061     23059     23057     23060     23062
     23059     23057     23060     23063     23060     23063     23066     23067
     23060     23063     23066     23068     23060     23063     23066     23069
     23061     23060     23063     23064     23061     23060     23063     23065
     23061     23060     23063     23066     23062     23060     23063     23064
     23062     23060     23063     23065     23062     23060     23063     23066
     23063     23066     23069     23070     23063     23066     23069     23071
     23063     23066     23069     23072     23064     23063     23066     23067
     23064     23063     23066     23068     23064     23063     23066     23069
     23065     23063     23066     23067     23065     23063     23066     23068
     23065     23063     23066     23069     23066     23069     23072     23073
     23066     23069     23072     23074     23066     23069     23072     23075
     23067     23066     23069     23070     23067     23066     23069     23071
     23067     23066     23069     23072     23068     23066     23069     23070
     23068     23066     23069     23071     23068     23066     23069     23072
     23069     23072     23075     23076     23069     23072     23075     23077
     23069     23072     23075     23078     23070     23069     23072     23073
     23070     23069     23072     23074     23070     23069     23072     23075
     23071     23069     23072     23073     23071     23069     23072     23074
     23071     23069     23072     23075     23072     23075     23078     23079
     23072     23075     23078     23080     23072     23075     23078     23081
     23073     23072     23075     23076     23073     23072     23075     23077
     23073     23072     23075     23078     23074     23072     23075     23076
     23074     23072     23075     23077     23074     23072     23075     23078
     23075     23078     23081     23082     23075     23078     23081     23083
     23075     23078     23081     23084     23076     23075     23078     23079
     23076     23075     23078     23080     23076     23075     23078     23081
     23077     23075     23078     23079     23077     23075     23078     23080
     23077     23075     23078     23081     23079     23078     23081     23082
     23079     23078     23081     23083     23079     23078     23081     23084
     23080     23078     23081     23082     23080     23078     23081     23083
     23080     23078     23081     23084     23085     23089     23092     23093
     23085     23089     23092     23094     23085     23089     23092     23099
     23086     23085     23089     23090     23086     23085     23089     23091
     23086     23085     23089     23092     23087     23085     23089     23090
     23087     23085     23089     23091     23087     23085     23089     23092
     23088     23085     23089     23090     23088     23085     23089     23091
     23088     23085     23089     23092     23089     23092     23099     23095
     23090     23089     23092     23093     23090     23089     23092     23094
     23090     23089     23092     23099     23091     23089     23092     23093
     23091     23089     23092     23094     23091     23089     23092     23099
     23092     23099     23095     23096     23092     23099     23095     23097
     23092     23099     23095     23098     23093     23092     23099     23095
     23094     23092     23099     23095     23095     23098     23100     23101
     23095     23098     23100     23102     23095     23098     23100     23103
     23096     23095     23098     23100     23097     23095     23098     23100
     23098     23100     23103     23104     23098     23100     23103     23105
     23098     23100     23103     23111     23099     23095     23098     23100
     23100     23103     23105     23106     23100     23103     23111     23112
     23100     23103     23111     23113     23100     23103     23111     23114
     23101     23100     23103     23104     23101     23100     23103     23105
     23101     23100     23103     23111     23102     23100     23103     23104
     23102     23100     23103     23105     23102     23100     23103     23111
     23103     23105     23106     23107     23103     23105     23106     23108
     23103     23111     23114     23115     23104     23103     23105     23106
     23104     23103     23111     23112     23104     23103     23111     23113
     23104     23103     23111     23114     23105     23103     23111     23112
     23105     23103     23111     23113     23105     23103     23111     23114
     23105     23106     23108     23109     23105     23106     23108     23110
     23105     23106     23108     23120     23106     23105     23103     23111
     23106     23108     23120     23121     23106     23108     23120     23122
     23106     23108     23120     23123     23107     23106     23108     23109
     23107     23106     23108     23110     23107     23106     23108     23120
     23108     23120     23123     23124     23108     23120     23123     23125
     23108     23120     23123     23126     23109     23108     23120     23121
     23109     23108     23120     23122     23109     23108     23120     23123
     23110     23108     23120     23121     23110     23108     23120     23122
     23110     23108     23120     23123     23111     23114     23115     23116
     23111     23114     23115     23117     23112     23111     23114     23115
     23113     23111     23114     23115     23114     23115     23117     23118
     23114     23115     23117     23119     23114     23115     23117     23167
     23115     23117     23167     23168     23115     23117     23167     23169
     23115     23117     23167     23170     23116     23115     23117     23118
     23116     23115     23117     23119     23116     23115     23117     23167
     23117     23167     23170     23171     23117     23167     23170     23172
     23117     23167     23170     23173     23118     23117     23167     23168
     23118     23117     23167     23169     23118     23117     23167     23170
     23119     23117     23167     23168     23119     23117     23167     23169
     23119     23117     23167     23170     23120     23123     23126     23127
     23120     23123     23126     23128     23120     23123     23126     23129
     23121     23120     23123     23124     23121     23120     23123     23125
     23121     23120     23123     23126     23122     23120     23123     23124
     23122     23120     23123     23125     23122     23120     23123     23126
     23123     23126     23129     23130     23123     23126     23129     23131
     23123     23126     23129     23132     23124     23123     23126     23127
     23124     23123     23126     23128     23124     23123     23126     23129
     23125     23123     23126     23127     23125     23123     23126     23128
     23125     23123     23126     23129     23126     23129     23132     23133
     23126     23129     23132     23134     23126     23129     23132     23135
     23127     23126     23129     23130     23127     23126     23129     23131
     23127     23126     23129     23132     23128     23126     23129     23130
     23128     23126     23129     23131     23128     23126     23129     23132
     23129     23132     23135     23136     23129     23132     23135     23137
     23129     23132     23135     23138     23130     23129     23132     23133
     23130     23129     23132     23134     23130     23129     23132     23135
     23131     23129     23132     23133     23131     23129     23132     23134
     23131     23129     23132     23135     23132     23135     23138     23139
     23132     23135     23138     23140     23133     23132     23135     23136
     23133     23132     23135     23137     23133     23132     23135     23138
     23134     23132     23135     23136     23134     23132     23135     23137
     23134     23132     23135     23138     23135     23138     23140     23141
     23135     23138     23140     23142     23136     23135     23138     23139
     23136     23135     23138     23140     23137     23135     23138     23139
     23137     23135     23138     23140     23138     23140     23142     23143
     23138     23140     23142     23144     23138     23140     23142     23145
     23139     23138     23140     23141     23139     23138     23140     23142
     23140     23142     23145     23146     23140     23142     23145     23147
     23140     23142     23145     23148     23141     23140     23142     23143
     23141     23140     23142     23144     23141     23140     23142     23145
     23142     23145     23148     23149     23142     23145     23148     23150
     23142     23145     23148     23151     23143     23142     23145     23146
     23143     23142     23145     23147     23143     23142     23145     23148
     23144     23142     23145     23146     23144     23142     23145     23147
     23144     23142     23145     23148     23145     23148     23151     23152
     23145     23148     23151     23153     23145     23148     23151     23154
     23146     23145     23148     23149     23146     23145     23148     23150
     23146     23145     23148     23151     23147     23145     23148     23149
     23147     23145     23148     23150     23147     23145     23148     23151
     23148     23151     23154     23155     23148     23151     23154     23156
     23148     23151     23154     23157     23149     23148     23151     23152
     23149     23148     23151     23153     23149     23148     23151     23154
     23150     23148     23151     23152     23150     23148     23151     23153
     23150     23148     23151     23154     23151     23154     23157     23158
     23151     23154     23157     23159     23151     23154     23157     23160
     23152     23151     23154     23155     23152     23151     23154     23156
     23152     23151     23154     23157     23153     23151     23154     23155
     23153     23151     23154     23156     23153     23151     23154     23157
     23154     23157     23160     23161     23154     23157     23160     23162
     23154     23157     23160     23163     23155     23154     23157     23158
     23155     23154     23157     23159     23155     23154     23157     23160
     23156     23154     23157     23158     23156     23154     23157     23159
     23156     23154     23157     23160     23157     23160     23163     23164
     23157     23160     23163     23165     23157     23160     23163     23166
     23158     23157     23160     23161     23158     23157     23160     23162
     23158     23157     23160     23163     23159     23157     23160     23161
     23159     23157     23160     23162     23159     23157     23160     23163
     23161     23160     23163     23164     23161     23160     23163     23165
     23161     23160     23163     23166     23162     23160     23163     23164
     23162     23160     23163     23165     23162     23160     23163     23166
     23167     23170     23173     23174     23167     23170     23173     23175
     23167     23170     23173     23176     23168     23167     23170     23171
     23168     23167     23170     23172     23168     23167     23170     23173
     23169     23167     23170     23171     23169     23167     23170     23172
     23169     23167     23170     23173     23170     23173     23176     23177
     23170     23173     23176     23178     23170     23173     23176     23179
     23171     23170     23173     23174     23171     23170     23173     23175
     23171     23170     23173     23176     23172     23170     23173     23174
     23172     23170     23173     23175     23172     23170     23173     23176
     23173     23176     23179     23180     23173     23176     23179     23181
     23173     23176     23179     23182     23174     23173     23176     23177
     23174     23173     23176     23178     23174     23173     23176     23179
     23175     23173     23176     23177     23175     23173     23176     23178
     23175     23173     23176     23179     23176     23179     23182     23183
     23176     23179     23182     23184     23176     23179     23182     23185
     23177     23176     23179     23180     23177     23176     23179     23181
     23177     23176     23179     23182     23178     23176     23179     23180
     23178     23176     23179     23181     23178     23176     23179     23182
     23179     23182     23185     23186     23179     23182     23185     23187
     23179     23182     23185     23188     23180     23179     23182     23183
     23180     23179     23182     23184     23180     23179     23182     23185
     23181     23179     23182     23183     23181     23179     23182     23184
     23181     23179     23182     23185     23182     23185     23188     23189
     23182     23185     23188     23190     23182     23185     23188     23191
     23183     23182     23185     23186     23183     23182     23185     23187
     23183     23182     23185     23188     23184     23182     23185     23186
     23184     23182     23185     23187     23184     23182     23185     23188
     23185     23188     23191     23192     23185     23188     23191     23193
     23185     23188     23191     23194     23186     23185     23188     23189
     23186     23185     23188     23190     23186     23185     23188     23191
     23187     23185     23188     23189     23187     23185     23188     23190
     23187     23185     23188     23191     23188     23191     23194     23195
     23188     23191     23194     23196     23188     23191     23194     23197
     23189     23188     23191     23192     23189     23188     23191     23193
     23189     23188     23191     23194     23190     23188     23191     23192
     23190     23188     23191     23193     23190     23188     23191     23194
     23191     23194     23197     23198     23191     23194     23197     23199
     23191     23194     23197     23200     23192     23191     23194     23195
     23192     23191     23194     23196     23192     23191     23194     23197
     23193     23191     23194     23195     23193     23191     23194     23196
     23193     23191     23194     23197     23194     23197     23200     23201
     23194     23197     23200     23202     23194     23197     23200     23203
     23195     23194     23197     23198     23195     23194     23197     23199
     23195     23194     23197     23200     23196     23194     23197     23198
     23196     23194     23197     23199     23196     23194     23197     23200
     23197     23200     23203     23204     23197     23200     23203     23205
     23197     23200     23203     23206     23198     23197     23200     23201
     23198     23197     23200     23202     23198     23197     23200     23203
     23199     23197     23200     23201     23199     23197     23200     23202
     23199     23197     23200     23203     23200     23203     23206     23207
     23200     23203     23206     23208     23200     23203     23206     23209
     23201     23200     23203     23204     23201     23200     23203     23205
     23201     23200     23203     23206     23202     23200     23203     23204
     23202     23200     23203     23205     23202     23200     23203     23206
     23204     23203     23206     23207     23204     23203     23206     23208
     23204     23203     23206     23209     23205     23203     23206     23207
     23205     23203     23206     23208     23205     23203     23206     23209
     23210     23214     23217     23218     23210     23214     23217     23219
     23210     23214     23217     23224     23211     23210     23214     23215
     23211     23210     23214     23216     23211     23210     23214     23217
     23212     23210     23214     23215     23212     23210     23214     23216
     23212     23210     23214     23217     23213     23210     23214     23215
     23213     23210     23214     23216     23213     23210     23214     23217
     23214     23217     23224     23220     23215     23214     23217     23218
     23215     23214     23217     23219     23215     23214     23217     23224
     23216     23214     23217     23218     23216     23214     23217     23219
     23216     23214     23217     23224     23217     23224     23220     23221
     23217     23224     23220     23222     23217     23224     23220     23223
     23218     23217     23224     23220     23219     23217     23224     23220
     23220     23223     23225     23226     23220     23223     23225     23227
     23220     23223     23225     23228     23221     23220     23223     23225
     23222     23220     23223     23225     23223     23225     23228     23229
     23223     23225     23228     23230     23223     23225     23228     23236
     23224     23220     23223     23225     23225     23228     23230     23231
     23225     23228     23236     23237     23225     23228     23236     23238
     23225     23228     23236     23239     23226     23225     23228     23229
     23226     23225     23228     23230     23226     23225     23228     23236
     23227     23225     23228     23229     23227     23225     23228     23230
     23227     23225     23228     23236     23228     23230     23231     23232
     23228     23230     23231     23233     23228     23236     23239     23240
     23229     23228     23230     23231     23229     23228     23236     23237
     23229     23228     23236     23238     23229     23228     23236     23239
     23230     23228     23236     23237     23230     23228     23236     23238
     23230     23228     23236     23239     23230     23231     23233     23234
     23230     23231     23233     23235     23230     23231     23233     23245
     23231     23230     23228     23236     23231     23233     23245     23246
     23231     23233     23245     23247     23231     23233     23245     23248
     23232     23231     23233     23234     23232     23231     23233     23235
     23232     23231     23233     23245     23233     23245     23248     23249
     23233     23245     23248     23250     23233     23245     23248     23251
     23234     23233     23245     23246     23234     23233     23245     23247
     23234     23233     23245     23248     23235     23233     23245     23246
     23235     23233     23245     23247     23235     23233     23245     23248
     23236     23239     23240     23241     23236     23239     23240     23242
     23237     23236     23239     23240     23238     23236     23239     23240
     23239     23240     23242     23243     23239     23240     23242     23244
     23239     23240     23242     23289     23240     23242     23289     23290
     23240     23242     23289     23291     23240     23242     23289     23292
     23241     23240     23242     23243     23241     23240     23242     23244
     23241     23240     23242     23289     23242     23289     23292     23293
     23242     23289     23292     23294     23242     23289     23292     23295
     23243     23242     23289     23290     23243     23242     23289     23291
     23243     23242     23289     23292     23244     23242     23289     23290
     23244     23242     23289     23291     23244     23242     23289     23292
     23245     23248     23251     23252     23245     23248     23251     23253
     23245     23248     23251     23254     23246     23245     23248     23249
     23246     23245     23248     23250     23246     23245     23248     23251
     23247     23245     23248     23249     23247     23245     23248     23250
     23247     23245     23248     23251     23248     23251     23254     23255
     23248     23251     23254     23256     23248     23251     23254     23257
     23249     23248     23251     23252     23249     23248     23251     23253
     23249     23248     23251     23254     23250     23248     23251     23252
     23250     23248     23251     23253     23250     23248     23251     23254
     23251     23254     23257     23258     23251     23254     23257     23259
     23251     23254     23257     23260     23252     23251     23254     23255
     23252     23251     23254     23256     23252     23251     23254     23257
     23253     23251     23254     23255     23253     23251     23254     23256
     23253     23251     23254     23257     23254     23257     23260     23261
     23254     23257     23260     23262     23254     23257     23260     23263
     23255     23254     23257     23258     23255     23254     23257     23259
     23255     23254     23257     23260     23256     23254     23257     23258
     23256     23254     23257     23259     23256     23254     23257     23260
     23257     23260     23263     23264     23257     23260     23263     23265
     23257     23260     23263     23268     23258     23257     23260     23261
     23258     23257     23260     23262     23258     23257     23260     23263
     23259     23257     23260     23261     23259     23257     23260     23262
     23259     23257     23260     23263     23260     23263     23265     23266
     23260     23263     23265     23267     23260     23263     23265     23268
     23260     23263     23268     23265     23260     23263     23268     23269
     23260     23263     23268     23270     23261     23260     23263     23264
     23261     23260     23263     23265     23261     23260     23263     23268
     23262     23260     23263     23264     23262     23260     23263     23265
     23262     23260     23263     23268     23263     23265     23268     23269
     23263     23265     23268     23270     23263     23268     23265     23266
     23263     23268     23265     23267     23263     23268     23270     23271
     23263     23268     23270     23272     23263     23268     23270     23273
     23264     23263     23265     23266     23264     23263     23265     23267
     23264     23263     23265     23268     23264     23263     23268     23265
     23264     23263     23268     23269     23264     23263     23268     23270
     23265     23263     23268     23269     23265     23263     23268     23270
     23265     23268     23270     23271     23265     23268     23270     23272
     23265     23268     23270     23273     23266     23265     23263     23268
     23266     23265     23268     23269     23266     23265     23268     23270
     23267     23265     23263     23268     23267     23265     23268     23269
     23267     23265     23268     23270     23268     23270     23273     23274
     23268     23270     23273     23275     23268     23270     23273     23276
     23269     23268     23270     23271     23269     23268     23270     23272
     23269     23268     23270     23273     23270     23273     23276     23277
     23270     23273     23276     23278     23270     23273     23276     23279
     23271     23270     23273     23274     23271     23270     23273     23275
     23271     23270     23273     23276     23272     23270     23273     23274
     23272     23270     23273     23275     23272     23270     23273     23276
     23273     23276     23279     23280     23273     23276     23279     23281
     23273     23276     23279     23282     23274     23273     23276     23277
     23274     23273     23276     23278     23274     23273     23276     23279
     23275     23273     23276     23277     23275     23273     23276     23278
     23275     23273     23276     23279     23276     23279     23282     23283
     23276     23279     23282     23284     23276     23279     23282     23285
     23277     23276     23279     23280     23277     23276     23279     23281
     23277     23276     23279     23282     23278     23276     23279     23280
     23278     23276     23279     23281     23278     23276     23279     23282
     23279     23282     23285     23286     23279     23282     23285     23287
     23279     23282     23285     23288     23280     23279     23282     23283
     23280     23279     23282     23284     23280     23279     23282     23285
     23281     23279     23282     23283     23281     23279     23282     23284
     23281     23279     23282     23285     23283     23282     23285     23286
     23283     23282     23285     23287     23283     23282     23285     23288
     23284     23282     23285     23286     23284     23282     23285     23287
     23284     23282     23285     23288     23289     23292     23295     23296
     23289     23292     23295     23297     23289     23292     23295     23298
     23290     23289     23292     23293     23290     23289     23292     23294
     23290     23289     23292     23295     23291     23289     23292     23293
     23291     23289     23292     23294     23291     23289     23292     23295
     23292     23295     23298     23299     23292     23295     23298     23300
     23292     23295     23298     23301     23293     23292     23295     23296
     23293     23292     23295     23297     23293     23292     23295     23298
     23294     23292     23295     23296     23294     23292     23295     23297
     23294     23292     23295     23298     23295     23298     23301     23302
     23295     23298     23301     23303     23295     23298     23301     23304
     23296     23295     23298     23299     23296     23295     23298     23300
     23296     23295     23298     23301     23297     23295     23298     23299
     23297     23295     23298     23300     23297     23295     23298     23301
     23298     23301     23304     23305     23298     23301     23304     23306
     23298     23301     23304     23307     23299     23298     23301     23302
     23299     23298     23301     23303     23299     23298     23301     23304
     23300     23298     23301     23302     23300     23298     23301     23303
     23300     23298     23301     23304     23301     23304     23307     23308
     23301     23304     23307     23309     23301     23304     23307     23310
     23302     23301     23304     23305     23302     23301     23304     23306
     23302     23301     23304     23307     23303     23301     23304     23305
     23303     23301     23304     23306     23303     23301     23304     23307
     23304     23307     23310     23311     23304     23307     23310     23312
     23304     23307     23310     23313     23305     23304     23307     23308
     23305     23304     23307     23309     23305     23304     23307     23310
     23306     23304     23307     23308     23306     23304     23307     23309
     23306     23304     23307     23310     23307     23310     23313     23314
     23307     23310     23313     23315     23307     23310     23313     23316
     23308     23307     23310     23311     23308     23307     23310     23312
     23308     23307     23310     23313     23309     23307     23310     23311
     23309     23307     23310     23312     23309     23307     23310     23313
     23310     23313     23316     23317     23310     23313     23316     23318
     23310     23313     23316     23319     23311     23310     23313     23314
     23311     23310     23313     23315     23311     23310     23313     23316
     23312     23310     23313     23314     23312     23310     23313     23315
     23312     23310     23313     23316     23313     23316     23319     23320
     23313     23316     23319     23321     23313     23316     23319     23322
     23314     23313     23316     23317     23314     23313     23316     23318
     23314     23313     23316     23319     23315     23313     23316     23317
     23315     23313     23316     23318     23315     23313     23316     23319
     23316     23319     23322     23323     23316     23319     23322     23324
     23316     23319     23322     23325     23317     23316     23319     23320
     23317     23316     23319     23321     23317     23316     23319     23322
     23318     23316     23319     23320     23318     23316     23319     23321
     23318     23316     23319     23322     23319     23322     23325     23326
     23319     23322     23325     23327     23319     23322     23325     23328
     23320     23319     23322     23323     23320     23319     23322     23324
     23320     23319     23322     23325     23321     23319     23322     23323
     23321     23319     23322     23324     23321     23319     23322     23325
     23322     23325     23328     23329     23322     23325     23328     23330
     23322     23325     23328     23331     23323     23322     23325     23326
     23323     23322     23325     23327     23323     23322     23325     23328
     23324     23322     23325     23326     23324     23322     23325     23327
     23324     23322     23325     23328     23326     23325     23328     23329
     23326     23325     23328     23330     23326     23325     23328     23331
     23327     23325     23328     23329     23327     23325     23328     23330
     23327     23325     23328     23331     23332     23336     23339     23340
     23332     23336     23339     23341     23332     23336     23339     23346
     23333     23332     23336     23337     23333     23332     23336     23338
     23333     23332     23336     23339     23334     23332     23336     23337
     23334     23332     23336     23338     23334     23332     23336     23339
     23335     23332     23336     23337     23335     23332     23336     23338
     23335     23332     23336     23339     23336     23339     23346     23342
     23337     23336     23339     23340     23337     23336     23339     23341
     23337     23336     23339     23346     23338     23336     23339     23340
     23338     23336     23339     23341     23338     23336     23339     23346
     23339     23346     23342     23343     23339     23346     23342     23344
     23339     23346     23342     23345     23340     23339     23346     23342
     23341     23339     23346     23342     23342     23345     23347     23348
     23342     23345     23347     23349     23342     23345     23347     23350
     23343     23342     23345     23347     23344     23342     23345     23347
     23345     23347     23350     23351     23345     23347     23350     23352
     23345     23347     23350     23358     23346     23342     23345     23347
     23347     23350     23352     23353     23347     23350     23358     23359
     23347     23350     23358     23360     23347     23350     23358     23361
     23348     23347     23350     23351     23348     23347     23350     23352
     23348     23347     23350     23358     23349     23347     23350     23351
     23349     23347     23350     23352     23349     23347     23350     23358
     23350     23352     23353     23354     23350     23352     23353     23355
     23350     23358     23361     23362     23351     23350     23352     23353
     23351     23350     23358     23359     23351     23350     23358     23360
     23351     23350     23358     23361     23352     23350     23358     23359
     23352     23350     23358     23360     23352     23350     23358     23361
     23352     23353     23355     23356     23352     23353     23355     23357
     23352     23353     23355     23367     23353     23352     23350     23358
     23353     23355     23367     23368     23353     23355     23367     23369
     23353     23355     23367     23370     23354     23353     23355     23356
     23354     23353     23355     23357     23354     23353     23355     23367
     23355     23367     23370     23371     23355     23367     23370     23372
     23355     23367     23370     23373     23356     23355     23367     23368
     23356     23355     23367     23369     23356     23355     23367     23370
     23357     23355     23367     23368     23357     23355     23367     23369
     23357     23355     23367     23370     23358     23361     23362     23363
     23358     23361     23362     23364     23359     23358     23361     23362
     23360     23358     23361     23362     23361     23362     23364     23365
     23361     23362     23364     23366     23361     23362     23364     23411
     23362     23364     23411     23412     23362     23364     23411     23413
     23362     23364     23411     23414     23363     23362     23364     23365
     23363     23362     23364     23366     23363     23362     23364     23411
     23364     23411     23414     23415     23364     23411     23414     23416
     23364     23411     23414     23417     23365     23364     23411     23412
     23365     23364     23411     23413     23365     23364     23411     23414
     23366     23364     23411     23412     23366     23364     23411     23413
     23366     23364     23411     23414     23367     23370     23373     23374
     23367     23370     23373     23375     23367     23370     23373     23376
     23368     23367     23370     23371     23368     23367     23370     23372
     23368     23367     23370     23373     23369     23367     23370     23371
     23369     23367     23370     23372     23369     23367     23370     23373
     23370     23373     23376     23377     23370     23373     23376     23378
     23370     23373     23376     23379     23371     23370     23373     23374
     23371     23370     23373     23375     23371     23370     23373     23376
     23372     23370     23373     23374     23372     23370     23373     23375
     23372     23370     23373     23376     23373     23376     23379     23380
     23373     23376     23379     23381     23373     23376     23379     23382
     23374     23373     23376     23377     23374     23373     23376     23378
     23374     23373     23376     23379     23375     23373     23376     23377
     23375     23373     23376     23378     23375     23373     23376     23379
     23376     23379     23382     23383     23376     23379     23382     23384
     23376     23379     23382     23385     23377     23376     23379     23380
     23377     23376     23379     23381     23377     23376     23379     23382
     23378     23376     23379     23380     23378     23376     23379     23381
     23378     23376     23379     23382     23379     23382     23385     23386
     23379     23382     23385     23387     23379     23382     23385     23390
     23380     23379     23382     23383     23380     23379     23382     23384
     23380     23379     23382     23385     23381     23379     23382     23383
     23381     23379     23382     23384     23381     23379     23382     23385
     23382     23385     23387     23388     23382     23385     23387     23389
     23382     23385     23387     23390     23382     23385     23390     23387
     23382     23385     23390     23391     23382     23385     23390     23392
     23383     23382     23385     23386     23383     23382     23385     23387
     23383     23382     23385     23390     23384     23382     23385     23386
     23384     23382     23385     23387     23384     23382     23385     23390
     23385     23387     23390     23391     23385     23387     23390     23392
     23385     23390     23387     23388     23385     23390     23387     23389
     23385     23390     23392     23393     23385     23390     23392     23394
     23385     23390     23392     23395     23386     23385     23387     23388
     23386     23385     23387     23389     23386     23385     23387     23390
     23386     23385     23390     23387     23386     23385     23390     23391
     23386     23385     23390     23392     23387     23385     23390     23391
     23387     23385     23390     23392     23387     23390     23392     23393
     23387     23390     23392     23394     23387     23390     23392     23395
     23388     23387     23385     23390     23388     23387     23390     23391
     23388     23387     23390     23392     23389     23387     23385     23390
     23389     23387     23390     23391     23389     23387     23390     23392
     23390     23392     23395     23396     23390     23392     23395     23397
     23390     23392     23395     23398     23391     23390     23392     23393
     23391     23390     23392     23394     23391     23390     23392     23395
     23392     23395     23398     23399     23392     23395     23398     23400
     23392     23395     23398     23401     23393     23392     23395     23396
     23393     23392     23395     23397     23393     23392     23395     23398
     23394     23392     23395     23396     23394     23392     23395     23397
     23394     23392     23395     23398     23395     23398     23401     23402
     23395     23398     23401     23403     23395     23398     23401     23404
     23396     23395     23398     23399     23396     23395     23398     23400
     23396     23395     23398     23401     23397     23395     23398     23399
     23397     23395     23398     23400     23397     23395     23398     23401
     23398     23401     23404     23405     23398     23401     23404     23406
     23398     23401     23404     23407     23399     23398     23401     23402
     23399     23398     23401     23403     23399     23398     23401     23404
     23400     23398     23401     23402     23400     23398     23401     23403
     23400     23398     23401     23404     23401     23404     23407     23408
     23401     23404     23407     23409     23401     23404     23407     23410
     23402     23401     23404     23405     23402     23401     23404     23406
     23402     23401     23404     23407     23403     23401     23404     23405
     23403     23401     23404     23406     23403     23401     23404     23407
     23405     23404     23407     23408     23405     23404     23407     23409
     23405     23404     23407     23410     23406     23404     23407     23408
     23406     23404     23407     23409     23406     23404     23407     23410
     23411     23414     23417     23418     23411     23414     23417     23419
     23411     23414     23417     23420     23412     23411     23414     23415
     23412     23411     23414     23416     23412     23411     23414     23417
     23413     23411     23414     23415     23413     23411     23414     23416
     23413     23411     23414     23417     23414     23417     23420     23421
     23414     23417     23420     23422     23414     23417     23420     23423
     23415     23414     23417     23418     23415     23414     23417     23419
     23415     23414     23417     23420     23416     23414     23417     23418
     23416     23414     23417     23419     23416     23414     23417     23420
     23417     23420     23423     23424     23417     23420     23423     23425
     23417     23420     23423     23426     23418     23417     23420     23421
     23418     23417     23420     23422     23418     23417     23420     23423
     23419     23417     23420     23421     23419     23417     23420     23422
     23419     23417     23420     23423     23420     23423     23426     23427
     23420     23423     23426     23428     23420     23423     23426     23429
     23421     23420     23423     23424     23421     23420     23423     23425
     23421     23420     23423     23426     23422     23420     23423     23424
     23422     23420     23423     23425     23422     23420     23423     23426
     23423     23426     23429     23430     23423     23426     23429     23431
     23423     23426     23429     23432     23424     23423     23426     23427
     23424     23423     23426     23428     23424     23423     23426     23429
     23425     23423     23426     23427     23425     23423     23426     23428
     23425     23423     23426     23429     23426     23429     23432     23433
     23426     23429     23432     23434     23426     23429     23432     23435
     23427     23426     23429     23430     23427     23426     23429     23431
     23427     23426     23429     23432     23428     23426     23429     23430
     23428     23426     23429     23431     23428     23426     23429     23432
     23429     23432     23435     23436     23429     23432     23435     23437
     23429     23432     23435     23438     23430     23429     23432     23433
     23430     23429     23432     23434     23430     23429     23432     23435
     23431     23429     23432     23433     23431     23429     23432     23434
     23431     23429     23432     23435     23432     23435     23438     23439
     23432     23435     23438     23440     23432     23435     23438     23441
     23433     23432     23435     23436     23433     23432     23435     23437
     23433     23432     23435     23438     23434     23432     23435     23436
     23434     23432     23435     23437     23434     23432     23435     23438
     23435     23438     23441     23442     23435     23438     23441     23443
     23435     23438     23441     23444     23436     23435     23438     23439
     23436     23435     23438     23440     23436     23435     23438     23441
     23437     23435     23438     23439     23437     23435     23438     23440
     23437     23435     23438     23441     23438     23441     23444     23445
     23438     23441     23444     23446     23438     23441     23444     23447
     23439     23438     23441     23442     23439     23438     23441     23443
     23439     23438     23441     23444     23440     23438     23441     23442
     23440     23438     23441     23443     23440     23438     23441     23444
     23441     23444     23447     23448     23441     23444     23447     23449
     23441     23444     23447     23450     23442     23441     23444     23445
     23442     23441     23444     23446     23442     23441     23444     23447
     23443     23441     23444     23445     23443     23441     23444     23446
     23443     23441     23444     23447     23444     23447     23450     23451
     23444     23447     23450     23452     23444     23447     23450     23453
     23445     23444     23447     23448     23445     23444     23447     23449
     23445     23444     23447     23450     23446     23444     23447     23448
     23446     23444     23447     23449     23446     23444     23447     23450
     23448     23447     23450     23451     23448     23447     23450     23452
     23448     23447     23450     23453     23449     23447     23450     23451
     23449     23447     23450     23452     23449     23447     23450     23453
     23454     23458     23461     23462     23454     23458     23461     23463
     23454     23458     23461     23468     23455     23454     23458     23459
     23455     23454     23458     23460     23455     23454     23458     23461
     23456     23454     23458     23459     23456     23454     23458     23460
     23456     23454     23458     23461     23457     23454     23458     23459
     23457     23454     23458     23460     23457     23454     23458     23461
     23458     23461     23468     23464     23459     23458     23461     23462
     23459     23458     23461     23463     23459     23458     23461     23468
     23460     23458     23461     23462     23460     23458     23461     23463
     23460     23458     23461     23468     23461     23468     23464     23465
     23461     23468     23464     23466     23461     23468     23464     23467
     23462     23461     23468     23464     23463     23461     23468     23464
     23464     23467     23469     23470     23464     23467     23469     23471
     23464     23467     23469     23472     23465     23464     23467     23469
     23466     23464     23467     23469     23467     23469     23472     23473
     23467     23469     23472     23474     23467     23469     23472     23480
     23468     23464     23467     23469     23469     23472     23474     23475
     23469     23472     23480     23481     23469     23472     23480     23482
     23469     23472     23480     23483     23470     23469     23472     23473
     23470     23469     23472     23474     23470     23469     23472     23480
     23471     23469     23472     23473     23471     23469     23472     23474
     23471     23469     23472     23480     23472     23474     23475     23476
     23472     23474     23475     23477     23472     23480     23483     23484
     23473     23472     23474     23475     23473     23472     23480     23481
     23473     23472     23480     23482     23473     23472     23480     23483
     23474     23472     23480     23481     23474     23472     23480     23482
     23474     23472     23480     23483     23474     23475     23477     23478
     23474     23475     23477     23479     23474     23475     23477     23489
     23475     23474     23472     23480     23475     23477     23489     23490
     23475     23477     23489     23491     23475     23477     23489     23492
     23476     23475     23477     23478     23476     23475     23477     23479
     23476     23475     23477     23489     23477     23489     23492     23493
     23477     23489     23492     23494     23477     23489     23492     23495
     23478     23477     23489     23490     23478     23477     23489     23491
     23478     23477     23489     23492     23479     23477     23489     23490
     23479     23477     23489     23491     23479     23477     23489     23492
     23480     23483     23484     23485     23480     23483     23484     23486
     23481     23480     23483     23484     23482     23480     23483     23484
     23483     23484     23486     23487     23483     23484     23486     23488
     23483     23484     23486     23533     23484     23486     23533     23534
     23484     23486     23533     23535     23484     23486     23533     23536
     23485     23484     23486     23487     23485     23484     23486     23488
     23485     23484     23486     23533     23486     23533     23536     23537
     23486     23533     23536     23538     23486     23533     23536     23539
     23487     23486     23533     23534     23487     23486     23533     23535
     23487     23486     23533     23536     23488     23486     23533     23534
     23488     23486     23533     23535     23488     23486     23533     23536
     23489     23492     23495     23496     23489     23492     23495     23497
     23489     23492     23495     23498     23490     23489     23492     23493
     23490     23489     23492     23494     23490     23489     23492     23495
     23491     23489     23492     23493     23491     23489     23492     23494
     23491     23489     23492     23495     23492     23495     23498     23499
     23492     23495     23498     23500     23492     23495     23498     23501
     23493     23492     23495     23496     23493     23492     23495     23497
     23493     23492     23495     23498     23494     23492     23495     23496
     23494     23492     23495     23497     23494     23492     23495     23498
     23495     23498     23501     23502     23495     23498     23501     23503
     23495     23498     23501     23504     23496     23495     23498     23499
     23496     23495     23498     23500     23496     23495     23498     23501
     23497     23495     23498     23499     23497     23495     23498     23500
     23497     23495     23498     23501     23498     23501     23504     23505
     23498     23501     23504     23506     23498     23501     23504     23507
     23499     23498     23501     23502     23499     23498     23501     23503
     23499     23498     23501     23504     23500     23498     23501     23502
     23500     23498     23501     23503     23500     23498     23501     23504
     23501     23504     23507     23508     23501     23504     23507     23509
     23501     23504     23507     23512     23502     23501     23504     23505
     23502     23501     23504     23506     23502     23501     23504     23507
     23503     23501     23504     23505     23503     23501     23504     23506
     23503     23501     23504     23507     23504     23507     23509     23510
     23504     23507     23509     23511     23504     23507     23509     23512
     23504     23507     23512     23509     23504     23507     23512     23513
     23504     23507     23512     23514     23505     23504     23507     23508
     23505     23504     23507     23509     23505     23504     23507     23512
     23506     23504     23507     23508     23506     23504     23507     23509
     23506     23504     23507     23512     23507     23509     23512     23513
     23507     23509     23512     23514     23507     23512     23509     23510
     23507     23512     23509     23511     23507     23512     23514     23515
     23507     23512     23514     23516     23507     23512     23514     23517
     23508     23507     23509     23510     23508     23507     23509     23511
     23508     23507     23509     23512     23508     23507     23512     23509
     23508     23507     23512     23513     23508     23507     23512     23514
     23509     23507     23512     23513     23509     23507     23512     23514
     23509     23512     23514     23515     23509     23512     23514     23516
     23509     23512     23514     23517     23510     23509     23507     23512
     23510     23509     23512     23513     23510     23509     23512     23514
     23511     23509     23507     23512     23511     23509     23512     23513
     23511     23509     23512     23514     23512     23514     23517     23518
     23512     23514     23517     23519     23512     23514     23517     23520
     23513     23512     23514     23515     23513     23512     23514     23516
     23513     23512     23514     23517     23514     23517     23520     23521
     23514     23517     23520     23522     23514     23517     23520     23523
     23515     23514     23517     23518     23515     23514     23517     23519
     23515     23514     23517     23520     23516     23514     23517     23518
     23516     23514     23517     23519     23516     23514     23517     23520
     23517     23520     23523     23524     23517     23520     23523     23525
     23517     23520     23523     23526     23518     23517     23520     23521
     23518     23517     23520     23522     23518     23517     23520     23523
     23519     23517     23520     23521     23519     23517     23520     23522
     23519     23517     23520     23523     23520     23523     23526     23527
     23520     23523     23526     23528     23520     23523     23526     23529
     23521     23520     23523     23524     23521     23520     23523     23525
     23521     23520     23523     23526     23522     23520     23523     23524
     23522     23520     23523     23525     23522     23520     23523     23526
     23523     23526     23529     23530     23523     23526     23529     23531
     23523     23526     23529     23532     23524     23523     23526     23527
     23524     23523     23526     23528     23524     23523     23526     23529
     23525     23523     23526     23527     23525     23523     23526     23528
     23525     23523     23526     23529     23527     23526     23529     23530
     23527     23526     23529     23531     23527     23526     23529     23532
     23528     23526     23529     23530     23528     23526     23529     23531
     23528     23526     23529     23532     23533     23536     23539     23540
     23533     23536     23539     23541     23533     23536     23539     23542
     23534     23533     23536     23537     23534     23533     23536     23538
     23534     23533     23536     23539     23535     23533     23536     23537
     23535     23533     23536     23538     23535     23533     23536     23539
     23536     23539     23542     23543     23536     23539     23542     23544
     23536     23539     23542     23545     23537     23536     23539     23540
     23537     23536     23539     23541     23537     23536     23539     23542
     23538     23536     23539     23540     23538     23536     23539     23541
     23538     23536     23539     23542     23539     23542     23545     23546
     23539     23542     23545     23547     23539     23542     23545     23548
     23540     23539     23542     23543     23540     23539     23542     23544
     23540     23539     23542     23545     23541     23539     23542     23543
     23541     23539     23542     23544     23541     23539     23542     23545
     23542     23545     23548     23549     23542     23545     23548     23550
     23542     23545     23548     23551     23543     23542     23545     23546
     23543     23542     23545     23547     23543     23542     23545     23548
     23544     23542     23545     23546     23544     23542     23545     23547
     23544     23542     23545     23548     23545     23548     23551     23552
     23545     23548     23551     23553     23545     23548     23551     23554
     23546     23545     23548     23549     23546     23545     23548     23550
     23546     23545     23548     23551     23547     23545     23548     23549
     23547     23545     23548     23550     23547     23545     23548     23551
     23548     23551     23554     23555     23548     23551     23554     23556
     23548     23551     23554     23557     23549     23548     23551     23552
     23549     23548     23551     23553     23549     23548     23551     23554
     23550     23548     23551     23552     23550     23548     23551     23553
     23550     23548     23551     23554     23551     23554     23557     23558
     23551     23554     23557     23559     23551     23554     23557     23560
     23552     23551     23554     23555     23552     23551     23554     23556
     23552     23551     23554     23557     23553     23551     23554     23555
     23553     23551     23554     23556     23553     23551     23554     23557
     23554     23557     23560     23561     23554     23557     23560     23562
     23554     23557     23560     23563     23555     23554     23557     23558
     23555     23554     23557     23559     23555     23554     23557     23560
     23556     23554     23557     23558     23556     23554     23557     23559
     23556     23554     23557     23560     23557     23560     23563     23564
     23557     23560     23563     23565     23557     23560     23563     23566
     23558     23557     23560     23561     23558     23557     23560     23562
     23558     23557     23560     23563     23559     23557     23560     23561
     23559     23557     23560     23562     23559     23557     23560     23563
     23560     23563     23566     23567     23560     23563     23566     23568
     23560     23563     23566     23569     23561     23560     23563     23564
     23561     23560     23563     23565     23561     23560     23563     23566
     23562     23560     23563     23564     23562     23560     23563     23565
     23562     23560     23563     23566     23563     23566     23569     23570
     23563     23566     23569     23571     23563     23566     23569     23572
     23564     23563     23566     23567     23564     23563     23566     23568
     23564     23563     23566     23569     23565     23563     23566     23567
     23565     23563     23566     23568     23565     23563     23566     23569
     23566     23569     23572     23573     23566     23569     23572     23574
     23566     23569     23572     23575     23567     23566     23569     23570
     23567     23566     23569     23571     23567     23566     23569     23572
     23568     23566     23569     23570     23568     23566     23569     23571
     23568     23566     23569     23572     23570     23569     23572     23573
     23570     23569     23572     23574     23570     23569     23572     23575
     23571     23569     23572     23573     23571     23569     23572     23574
     23571     23569     23572     23575     23576     23580     23583     23584
     23576     23580     23583     23585     23576     23580     23583     23590
     23577     23576     23580     23581     23577     23576     23580     23582
     23577     23576     23580     23583     23578     23576     23580     23581
     23578     23576     23580     23582     23578     23576     23580     23583
     23579     23576     23580     23581     23579     23576     23580     23582
     23579     23576     23580     23583     23580     23583     23590     23586
     23581     23580     23583     23584     23581     23580     23583     23585
     23581     23580     23583     23590     23582     23580     23583     23584
     23582     23580     23583     23585     23582     23580     23583     23590
     23583     23590     23586     23587     23583     23590     23586     23588
     23583     23590     23586     23589     23584     23583     23590     23586
     23585     23583     23590     23586     23586     23589     23591     23592
     23586     23589     23591     23593     23586     23589     23591     23594
     23587     23586     23589     23591     23588     23586     23589     23591
     23589     23591     23594     23595     23589     23591     23594     23596
     23589     23591     23594     23602     23590     23586     23589     23591
     23591     23594     23596     23597     23591     23594     23602     23603
     23591     23594     23602     23604     23591     23594     23602     23605
     23592     23591     23594     23595     23592     23591     23594     23596
     23592     23591     23594     23602     23593     23591     23594     23595
     23593     23591     23594     23596     23593     23591     23594     23602
     23594     23596     23597     23598     23594     23596     23597     23599
     23594     23602     23605     23606     23595     23594     23596     23597
     23595     23594     23602     23603     23595     23594     23602     23604
     23595     23594     23602     23605     23596     23594     23602     23603
     23596     23594     23602     23604     23596     23594     23602     23605
     23596     23597     23599     23600     23596     23597     23599     23601
     23596     23597     23599     23611     23597     23596     23594     23602
     23597     23599     23611     23612     23597     23599     23611     23613
     23597     23599     23611     23614     23598     23597     23599     23600
     23598     23597     23599     23601     23598     23597     23599     23611
     23599     23611     23614     23615     23599     23611     23614     23616
     23599     23611     23614     23617     23600     23599     23611     23612
     23600     23599     23611     23613     23600     23599     23611     23614
     23601     23599     23611     23612     23601     23599     23611     23613
     23601     23599     23611     23614     23602     23605     23606     23607
     23602     23605     23606     23608     23603     23602     23605     23606
     23604     23602     23605     23606     23605     23606     23608     23609
     23605     23606     23608     23610     23605     23606     23608     23658
     23606     23608     23658     23659     23606     23608     23658     23660
     23606     23608     23658     23661     23607     23606     23608     23609
     23607     23606     23608     23610     23607     23606     23608     23658
     23608     23658     23661     23662     23608     23658     23661     23663
     23608     23658     23661     23664     23609     23608     23658     23659
     23609     23608     23658     23660     23609     23608     23658     23661
     23610     23608     23658     23659     23610     23608     23658     23660
     23610     23608     23658     23661     23611     23614     23617     23618
     23611     23614     23617     23619     23611     23614     23617     23620
     23612     23611     23614     23615     23612     23611     23614     23616
     23612     23611     23614     23617     23613     23611     23614     23615
     23613     23611     23614     23616     23613     23611     23614     23617
     23614     23617     23620     23621     23614     23617     23620     23622
     23614     23617     23620     23623     23615     23614     23617     23618
     23615     23614     23617     23619     23615     23614     23617     23620
     23616     23614     23617     23618     23616     23614     23617     23619
     23616     23614     23617     23620     23617     23620     23623     23624
     23617     23620     23623     23625     23617     23620     23623     23626
     23618     23617     23620     23621     23618     23617     23620     23622
     23618     23617     23620     23623     23619     23617     23620     23621
     23619     23617     23620     23622     23619     23617     23620     23623
     23620     23623     23626     23627     23620     23623     23626     23628
     23620     23623     23626     23629     23621     23620     23623     23624
     23621     23620     23623     23625     23621     23620     23623     23626
     23622     23620     23623     23624     23622     23620     23623     23625
     23622     23620     23623     23626     23623     23626     23629     23630
     23623     23626     23629     23631     23624     23623     23626     23627
     23624     23623     23626     23628     23624     23623     23626     23629
     23625     23623     23626     23627     23625     23623     23626     23628
     23625     23623     23626     23629     23626     23629     23631     23632
     23626     23629     23631     23633     23627     23626     23629     23630
     23627     23626     23629     23631     23628     23626     23629     23630
     23628     23626     23629     23631     23629     23631     23633     23634
     23629     23631     23633     23635     23629     23631     23633     23636
     23630     23629     23631     23632     23630     23629     23631     23633
     23631     23633     23636     23637     23631     23633     23636     23638
     23631     23633     23636     23639     23632     23631     23633     23634
     23632     23631     23633     23635     23632     23631     23633     23636
     23633     23636     23639     23640     23633     23636     23639     23641
     23633     23636     23639     23642     23634     23633     23636     23637
     23634     23633     23636     23638     23634     23633     23636     23639
     23635     23633     23636     23637     23635     23633     23636     23638
     23635     23633     23636     23639     23636     23639     23642     23643
     23636     23639     23642     23644     23636     23639     23642     23645
     23637     23636     23639     23640     23637     23636     23639     23641
     23637     23636     23639     23642     23638     23636     23639     23640
     23638     23636     23639     23641     23638     23636     23639     23642
     23639     23642     23645     23646     23639     23642     23645     23647
     23639     23642     23645     23648     23640     23639     23642     23643
     23640     23639     23642     23644     23640     23639     23642     23645
     23641     23639     23642     23643     23641     23639     23642     23644
     23641     23639     23642     23645     23642     23645     23648     23649
     23642     23645     23648     23650     23642     23645     23648     23651
     23643     23642     23645     23646     23643     23642     23645     23647
     23643     23642     23645     23648     23644     23642     23645     23646
     23644     23642     23645     23647     23644     23642     23645     23648
     23645     23648     23651     23652     23645     23648     23651     23653
     23645     23648     23651     23654     23646     23645     23648     23649
     23646     23645     23648     23650     23646     23645     23648     23651
     23647     23645     23648     23649     23647     23645     23648     23650
     23647     23645     23648     23651     23648     23651     23654     23655
     23648     23651     23654     23656     23648     23651     23654     23657
     23649     23648     23651     23652     23649     23648     23651     23653
     23649     23648     23651     23654     23650     23648     23651     23652
     23650     23648     23651     23653     23650     23648     23651     23654
     23652     23651     23654     23655     23652     23651     23654     23656
     23652     23651     23654     23657     23653     23651     23654     23655
     23653     23651     23654     23656     23653     23651     23654     23657
     23658     23661     23664     23665     23658     23661     23664     23666
     23658     23661     23664     23667     23659     23658     23661     23662
     23659     23658     23661     23663     23659     23658     23661     23664
     23660     23658     23661     23662     23660     23658     23661     23663
     23660     23658     23661     23664     23661     23664     23667     23668
     23661     23664     23667     23669     23661     23664     23667     23670
     23662     23661     23664     23665     23662     23661     23664     23666
     23662     23661     23664     23667     23663     23661     23664     23665
     23663     23661     23664     23666     23663     23661     23664     23667
     23664     23667     23670     23671     23664     23667     23670     23672
     23664     23667     23670     23673     23665     23664     23667     23668
     23665     23664     23667     23669     23665     23664     23667     23670
     23666     23664     23667     23668     23666     23664     23667     23669
     23666     23664     23667     23670     23667     23670     23673     23674
     23667     23670     23673     23675     23667     23670     23673     23676
     23668     23667     23670     23671     23668     23667     23670     23672
     23668     23667     23670     23673     23669     23667     23670     23671
     23669     23667     23670     23672     23669     23667     23670     23673
     23670     23673     23676     23677     23670     23673     23676     23678
     23670     23673     23676     23679     23671     23670     23673     23674
     23671     23670     23673     23675     23671     23670     23673     23676
     23672     23670     23673     23674     23672     23670     23673     23675
     23672     23670     23673     23676     23673     23676     23679     23680
     23673     23676     23679     23681     23673     23676     23679     23682
     23674     23673     23676     23677     23674     23673     23676     23678
     23674     23673     23676     23679     23675     23673     23676     23677
     23675     23673     23676     23678     23675     23673     23676     23679
     23676     23679     23682     23683     23676     23679     23682     23684
     23676     23679     23682     23685     23677     23676     23679     23680
     23677     23676     23679     23681     23677     23676     23679     23682
     23678     23676     23679     23680     23678     23676     23679     23681
     23678     23676     23679     23682     23679     23682     23685     23686
     23679     23682     23685     23687     23679     23682     23685     23688
     23680     23679     23682     23683     23680     23679     23682     23684
     23680     23679     23682     23685     23681     23679     23682     23683
     23681     23679     23682     23684     23681     23679     23682     23685
     23682     23685     23688     23689     23682     23685     23688     23690
     23682     23685     23688     23691     23683     23682     23685     23686
     23683     23682     23685     23687     23683     23682     23685     23688
     23684     23682     23685     23686     23684     23682     23685     23687
     23684     23682     23685     23688     23685     23688     23691     23692
     23685     23688     23691     23693     23685     23688     23691     23694
     23686     23685     23688     23689     23686     23685     23688     23690
     23686     23685     23688     23691     23687     23685     23688     23689
     23687     23685     23688     23690     23687     23685     23688     23691
     23688     23691     23694     23695     23688     23691     23694     23696
     23688     23691     23694     23697     23689     23688     23691     23692
     23689     23688     23691     23693     23689     23688     23691     23694
     23690     23688     23691     23692     23690     23688     23691     23693
     23690     23688     23691     23694     23691     23694     23697     23698
     23691     23694     23697     23699     23691     23694     23697     23700
     23692     23691     23694     23695     23692     23691     23694     23696
     23692     23691     23694     23697     23693     23691     23694     23695
     23693     23691     23694     23696     23693     23691     23694     23697
     23695     23694     23697     23698     23695     23694     23697     23699
     23695     23694     23697     23700     23696     23694     23697     23698
     23696     23694     23697     23699     23696     23694     23697     23700
     23701     23706     23708     23709     23701     23706     23710     23711
     23701     23706     23710     23712     23701     23706     23710     23717
     23702     23701     23704     23705     23702     23701     23706     23707
     23702     23701     23706     23708     23702     23701     23706     23710
     23703     23701     23704     23705     23703     23701     23706     23707
     23703     23701     23706     23708     23703     23701     23706     23710
     23704     23701     23706     23707     23704     23701     23706     23708
     23704     23701     23706     23710     23705     23704     23701     23706
     23706     23710     23717     23713     23707     23706     23708     23709
     23707     23706     23710     23711     23707     23706     23710     23712
     23707     23706     23710     23717     23708     23706     23710     23711
     23708     23706     23710     23712     23708     23706     23710     23717
     23709     23708     23706     23710     23710     23717     23713     23714
     23710     23717     23713     23715     23710     23717     23713     23716
     23711     23710     23717     23713     23712     23710     23717     23713
     23713     23716     23718     23719     23713     23716     23718     23720
     23713     23716     23718     23721     23714     23713     23716     23718
     23715     23713     23716     23718     23716     23718     23721     23722
     23716     23718     23721     23723     23716     23718     23721     23729
     23717     23713     23716     23718     23718     23721     23723     23724
     23718     23721     23729     23730     23718     23721     23729     23731
     23718     23721     23729     23732     23719     23718     23721     23722
     23719     23718     23721     23723     23719     23718     23721     23729
     23720     23718     23721     23722     23720     23718     23721     23723
     23720     23718     23721     23729     23721     23723     23724     23725
     23721     23723     23724     23726     23721     23729     23732     23733
     23722     23721     23723     23724     23722     23721     23729     23730
     23722     23721     23729     23731     23722     23721     23729     23732
     23723     23721     23729     23730     23723     23721     23729     23731
     23723     23721     23729     23732     23723     23724     23726     23727
     23723     23724     23726     23728     23723     23724     23726     23738
     23724     23723     23721     23729     23724     23726     23738     23739
     23724     23726     23738     23740     23724     23726     23738     23741
     23725     23724     23726     23727     23725     23724     23726     23728
     23725     23724     23726     23738     23726     23738     23741     23742
     23726     23738     23741     23743     23726     23738     23741     23744
     23727     23726     23738     23739     23727     23726     23738     23740
     23727     23726     23738     23741     23728     23726     23738     23739
     23728     23726     23738     23740     23728     23726     23738     23741
     23729     23732     23733     23734     23729     23732     23733     23735
     23730     23729     23732     23733     23731     23729     23732     23733
     23732     23733     23735     23736     23732     23733     23735     23737
     23732     23733     23735     23779     23733     23735     23779     23780
     23733     23735     23779     23781     23733     23735     23779     23782
     23734     23733     23735     23736     23734     23733     23735     23737
     23734     23733     23735     23779     23735     23779     23782     23783
     23735     23779     23782     23784     23735     23779     23782     23785
     23736     23735     23779     23780     23736     23735     23779     23781
     23736     23735     23779     23782     23737     23735     23779     23780
     23737     23735     23779     23781     23737     23735     23779     23782
     23738     23741     23744     23745     23738     23741     23744     23746
     23738     23741     23744     23747     23739     23738     23741     23742
     23739     23738     23741     23743     23739     23738     23741     23744
     23740     23738     23741     23742     23740     23738     23741     23743
     23740     23738     23741     23744     23741     23744     23747     23748
     23741     23744     23747     23749     23741     23744     23747     23750
     23742     23741     23744     23745     23742     23741     23744     23746
     23742     23741     23744     23747     23743     23741     23744     23745
     23743     23741     23744     23746     23743     23741     23744     23747
     23744     23747     23750     23751     23744     23747     23750     23752
     23744     23747     23750     23753     23745     23744     23747     23748
     23745     23744     23747     23749     23745     23744     23747     23750
     23746     23744     23747     23748     23746     23744     23747     23749
     23746     23744     23747     23750     23747     23750     23753     23754
     23747     23750     23753     23755     23747     23750     23753     23756
     23748     23747     23750     23751     23748     23747     23750     23752
     23748     23747     23750     23753     23749     23747     23750     23751
     23749     23747     23750     23752     23749     23747     23750     23753
     23750     23753     23756     23757     23750     23753     23756     23758
     23751     23750     23753     23754     23751     23750     23753     23755
     23751     23750     23753     23756     23752     23750     23753     23754
     23752     23750     23753     23755     23752     23750     23753     23756
     23753     23756     23758     23759     23753     23756     23758     23760
     23754     23753     23756     23757     23754     23753     23756     23758
     23755     23753     23756     23757     23755     23753     23756     23758
     23756     23758     23760     23761     23756     23758     23760     23762
     23756     23758     23760     23763     23757     23756     23758     23759
     23757     23756     23758     23760     23758     23760     23763     23764
     23758     23760     23763     23765     23758     23760     23763     23766
     23759     23758     23760     23761     23759     23758     23760     23762
     23759     23758     23760     23763     23760     23763     23766     23767
     23760     23763     23766     23768     23760     23763     23766     23769
     23761     23760     23763     23764     23761     23760     23763     23765
     23761     23760     23763     23766     23762     23760     23763     23764
     23762     23760     23763     23765     23762     23760     23763     23766
     23763     23766     23769     23770     23763     23766     23769     23771
     23763     23766     23769     23772     23764     23763     23766     23767
     23764     23763     23766     23768     23764     23763     23766     23769
     23765     23763     23766     23767     23765     23763     23766     23768
     23765     23763     23766     23769     23766     23769     23772     23773
     23766     23769     23772     23774     23766     23769     23772     23775
     23767     23766     23769     23770     23767     23766     23769     23771
     23767     23766     23769     23772     23768     23766     23769     23770
     23768     23766     23769     23771     23768     23766     23769     23772
     23769     23772     23775     23776     23769     23772     23775     23777
     23769     23772     23775     23778     23770     23769     23772     23773
     23770     23769     23772     23774     23770     23769     23772     23775
     23771     23769     23772     23773     23771     23769     23772     23774
     23771     23769     23772     23775     23773     23772     23775     23776
     23773     23772     23775     23777     23773     23772     23775     23778
     23774     23772     23775     23776     23774     23772     23775     23777
     23774     23772     23775     23778     23779     23782     23785     23786
     23779     23782     23785     23787     23779     23782     23785     23788
     23780     23779     23782     23783     23780     23779     23782     23784
     23780     23779     23782     23785     23781     23779     23782     23783
     23781     23779     23782     23784     23781     23779     23782     23785
     23782     23785     23788     23789     23782     23785     23788     23790
     23782     23785     23788     23791     23783     23782     23785     23786
     23783     23782     23785     23787     23783     23782     23785     23788
     23784     23782     23785     23786     23784     23782     23785     23787
     23784     23782     23785     23788     23785     23788     23791     23792
     23785     23788     23791     23793     23785     23788     23791     23794
     23786     23785     23788     23789     23786     23785     23788     23790
     23786     23785     23788     23791     23787     23785     23788     23789
     23787     23785     23788     23790     23787     23785     23788     23791
     23788     23791     23794     23795     23788     23791     23794     23796
     23788     23791     23794     23797     23789     23788     23791     23792
     23789     23788     23791     23793     23789     23788     23791     23794
     23790     23788     23791     23792     23790     23788     23791     23793
     23790     23788     23791     23794     23791     23794     23797     23798
     23791     23794     23797     23799     23791     23794     23797     23800
     23792     23791     23794     23795     23792     23791     23794     23796
     23792     23791     23794     23797     23793     23791     23794     23795
     23793     23791     23794     23796     23793     23791     23794     23797
     23794     23797     23800     23801     23794     23797     23800     23802
     23794     23797     23800     23803     23795     23794     23797     23798
     23795     23794     23797     23799     23795     23794     23797     23800
     23796     23794     23797     23798     23796     23794     23797     23799
     23796     23794     23797     23800     23797     23800     23803     23804
     23797     23800     23803     23805     23797     23800     23803     23806
     23798     23797     23800     23801     23798     23797     23800     23802
     23798     23797     23800     23803     23799     23797     23800     23801
     23799     23797     23800     23802     23799     23797     23800     23803
     23800     23803     23806     23807     23800     23803     23806     23808
     23800     23803     23806     23809     23801     23800     23803     23804
     23801     23800     23803     23805     23801     23800     23803     23806
     23802     23800     23803     23804     23802     23800     23803     23805
     23802     23800     23803     23806     23803     23806     23809     23810
     23803     23806     23809     23811     23803     23806     23809     23812
     23804     23803     23806     23807     23804     23803     23806     23808
     23804     23803     23806     23809     23805     23803     23806     23807
     23805     23803     23806     23808     23805     23803     23806     23809
     23806     23809     23812     23813     23806     23809     23812     23814
     23806     23809     23812     23815     23807     23806     23809     23810
     23807     23806     23809     23811     23807     23806     23809     23812
     23808     23806     23809     23810     23808     23806     23809     23811
     23808     23806     23809     23812     23809     23812     23815     23816
     23809     23812     23815     23817     23809     23812     23815     23818
     23810     23809     23812     23813     23810     23809     23812     23814
     23810     23809     23812     23815     23811     23809     23812     23813
     23811     23809     23812     23814     23811     23809     23812     23815
     23812     23815     23818     23819     23812     23815     23818     23820
     23812     23815     23818     23821     23813     23812     23815     23816
     23813     23812     23815     23817     23813     23812     23815     23818
     23814     23812     23815     23816     23814     23812     23815     23817
     23814     23812     23815     23818     23816     23815     23818     23819
     23816     23815     23818     23820     23816     23815     23818     23821
     23817     23815     23818     23819     23817     23815     23818     23820
     23817     23815     23818     23821     23822     23826     23829     23830
     23822     23826     23829     23831     23822     23826     23829     23836
     23823     23822     23826     23827     23823     23822     23826     23828
     23823     23822     23826     23829     23824     23822     23826     23827
     23824     23822     23826     23828     23824     23822     23826     23829
     23825     23822     23826     23827     23825     23822     23826     23828
     23825     23822     23826     23829     23826     23829     23836     23832
     23827     23826     23829     23830     23827     23826     23829     23831
     23827     23826     23829     23836     23828     23826     23829     23830
     23828     23826     23829     23831     23828     23826     23829     23836
     23829     23836     23832     23833     23829     23836     23832     23834
     23829     23836     23832     23835     23830     23829     23836     23832
     23831     23829     23836     23832     23832     23835     23837     23838
     23832     23835     23837     23839     23832     23835     23837     23840
     23833     23832     23835     23837     23834     23832     23835     23837
     23835     23837     23840     23841     23835     23837     23840     23842
     23835     23837     23840     23848     23836     23832     23835     23837
     23837     23840     23842     23843     23837     23840     23848     23849
     23837     23840     23848     23850     23837     23840     23848     23851
     23838     23837     23840     23841     23838     23837     23840     23842
     23838     23837     23840     23848     23839     23837     23840     23841
     23839     23837     23840     23842     23839     23837     23840     23848
     23840     23842     23843     23844     23840     23842     23843     23845
     23840     23848     23851     23852     23841     23840     23842     23843
     23841     23840     23848     23849     23841     23840     23848     23850
     23841     23840     23848     23851     23842     23840     23848     23849
     23842     23840     23848     23850     23842     23840     23848     23851
     23842     23843     23845     23846     23842     23843     23845     23847
     23842     23843     23845     23857     23843     23842     23840     23848
     23843     23845     23857     23858     23843     23845     23857     23859
     23843     23845     23857     23860     23844     23843     23845     23846
     23844     23843     23845     23847     23844     23843     23845     23857
     23845     23857     23860     23861     23845     23857     23860     23862
     23845     23857     23860     23863     23846     23845     23857     23858
     23846     23845     23857     23859     23846     23845     23857     23860
     23847     23845     23857     23858     23847     23845     23857     23859
     23847     23845     23857     23860     23848     23851     23852     23853
     23848     23851     23852     23854     23849     23848     23851     23852
     23850     23848     23851     23852     23851     23852     23854     23855
     23851     23852     23854     23856     23851     23852     23854     23901
     23852     23854     23901     23902     23852     23854     23901     23903
     23852     23854     23901     23904     23853     23852     23854     23855
     23853     23852     23854     23856     23853     23852     23854     23901
     23854     23901     23904     23905     23854     23901     23904     23906
     23854     23901     23904     23907     23855     23854     23901     23902
     23855     23854     23901     23903     23855     23854     23901     23904
     23856     23854     23901     23902     23856     23854     23901     23903
     23856     23854     23901     23904     23857     23860     23863     23864
     23857     23860     23863     23865     23857     23860     23863     23866
     23858     23857     23860     23861     23858     23857     23860     23862
     23858     23857     23860     23863     23859     23857     23860     23861
     23859     23857     23860     23862     23859     23857     23860     23863
     23860     23863     23866     23867     23860     23863     23866     23868
     23860     23863     23866     23869     23861     23860     23863     23864
     23861     23860     23863     23865     23861     23860     23863     23866
     23862     23860     23863     23864     23862     23860     23863     23865
     23862     23860     23863     23866     23863     23866     23869     23870
     23863     23866     23869     23871     23863     23866     23869     23872
     23864     23863     23866     23867     23864     23863     23866     23868
     23864     23863     23866     23869     23865     23863     23866     23867
     23865     23863     23866     23868     23865     23863     23866     23869
     23866     23869     23872     23873     23866     23869     23872     23874
     23866     23869     23872     23875     23867     23866     23869     23870
     23867     23866     23869     23871     23867     23866     23869     23872
     23868     23866     23869     23870     23868     23866     23869     23871
     23868     23866     23869     23872     23869     23872     23875     23876
     23869     23872     23875     23877     23869     23872     23875     23880
     23870     23869     23872     23873     23870     23869     23872     23874
     23870     23869     23872     23875     23871     23869     23872     23873
     23871     23869     23872     23874     23871     23869     23872     23875
     23872     23875     23877     23878     23872     23875     23877     23879
     23872     23875     23877     23880     23872     23875     23880     23877
     23872     23875     23880     23881     23872     23875     23880     23882
     23873     23872     23875     23876     23873     23872     23875     23877
     23873     23872     23875     23880     23874     23872     23875     23876
     23874     23872     23875     23877     23874     23872     23875     23880
     23875     23877     23880     23881     23875     23877     23880     23882
     23875     23880     23877     23878     23875     23880     23877     23879
     23875     23880     23882     23883     23875     23880     23882     23884
     23875     23880     23882     23885     23876     23875     23877     23878
     23876     23875     23877     23879     23876     23875     23877     23880
     23876     23875     23880     23877     23876     23875     23880     23881
     23876     23875     23880     23882     23877     23875     23880     23881
     23877     23875     23880     23882     23877     23880     23882     23883
     23877     23880     23882     23884     23877     23880     23882     23885
     23878     23877     23875     23880     23878     23877     23880     23881
     23878     23877     23880     23882     23879     23877     23875     23880
     23879     23877     23880     23881     23879     23877     23880     23882
     23880     23882     23885     23886     23880     23882     23885     23887
     23880     23882     23885     23888     23881     23880     23882     23883
     23881     23880     23882     23884     23881     23880     23882     23885
     23882     23885     23888     23889     23882     23885     23888     23890
     23882     23885     23888     23891     23883     23882     23885     23886
     23883     23882     23885     23887     23883     23882     23885     23888
     23884     23882     23885     23886     23884     23882     23885     23887
     23884     23882     23885     23888     23885     23888     23891     23892
     23885     23888     23891     23893     23885     23888     23891     23894
     23886     23885     23888     23889     23886     23885     23888     23890
     23886     23885     23888     23891     23887     23885     23888     23889
     23887     23885     23888     23890     23887     23885     23888     23891
     23888     23891     23894     23895     23888     23891     23894     23896
     23888     23891     23894     23897     23889     23888     23891     23892
     23889     23888     23891     23893     23889     23888     23891     23894
     23890     23888     23891     23892     23890     23888     23891     23893
     23890     23888     23891     23894     23891     23894     23897     23898
     23891     23894     23897     23899     23891     23894     23897     23900
     23892     23891     23894     23895     23892     23891     23894     23896
     23892     23891     23894     23897     23893     23891     23894     23895
     23893     23891     23894     23896     23893     23891     23894     23897
     23895     23894     23897     23898     23895     23894     23897     23899
     23895     23894     23897     23900     23896     23894     23897     23898
     23896     23894     23897     23899     23896     23894     23897     23900
     23901     23904     23907     23908     23901     23904     23907     23909
     23901     23904     23907     23910     23902     23901     23904     23905
     23902     23901     23904     23906     23902     23901     23904     23907
     23903     23901     23904     23905     23903     23901     23904     23906
     23903     23901     23904     23907     23904     23907     23910     23911
     23904     23907     23910     23912     23904     23907     23910     23913
     23905     23904     23907     23908     23905     23904     23907     23909
     23905     23904     23907     23910     23906     23904     23907     23908
     23906     23904     23907     23909     23906     23904     23907     23910
     23907     23910     23913     23914     23907     23910     23913     23915
     23907     23910     23913     23916     23908     23907     23910     23911
     23908     23907     23910     23912     23908     23907     23910     23913
     23909     23907     23910     23911     23909     23907     23910     23912
     23909     23907     23910     23913     23910     23913     23916     23917
     23910     23913     23916     23918     23910     23913     23916     23919
     23911     23910     23913     23914     23911     23910     23913     23915
     23911     23910     23913     23916     23912     23910     23913     23914
     23912     23910     23913     23915     23912     23910     23913     23916
     23913     23916     23919     23920     23913     23916     23919     23921
     23913     23916     23919     23922     23914     23913     23916     23917
     23914     23913     23916     23918     23914     23913     23916     23919
     23915     23913     23916     23917     23915     23913     23916     23918
     23915     23913     23916     23919     23916     23919     23922     23923
     23916     23919     23922     23924     23916     23919     23922     23925
     23917     23916     23919     23920     23917     23916     23919     23921
     23917     23916     23919     23922     23918     23916     23919     23920
     23918     23916     23919     23921     23918     23916     23919     23922
     23919     23922     23925     23926     23919     23922     23925     23927
     23919     23922     23925     23928     23920     23919     23922     23923
     23920     23919     23922     23924     23920     23919     23922     23925
     23921     23919     23922     23923     23921     23919     23922     23924
     23921     23919     23922     23925     23922     23925     23928     23929
     23922     23925     23928     23930     23922     23925     23928     23931
     23923     23922     23925     23926     23923     23922     23925     23927
     23923     23922     23925     23928     23924     23922     23925     23926
     23924     23922     23925     23927     23924     23922     23925     23928
     23925     23928     23931     23932     23925     23928     23931     23933
     23925     23928     23931     23934     23926     23925     23928     23929
     23926     23925     23928     23930     23926     23925     23928     23931
     23927     23925     23928     23929     23927     23925     23928     23930
     23927     23925     23928     23931     23928     23931     23934     23935
     23928     23931     23934     23936     23928     23931     23934     23937
     23929     23928     23931     23932     23929     23928     23931     23933
     23929     23928     23931     23934     23930     23928     23931     23932
     23930     23928     23931     23933     23930     23928     23931     23934
     23931     23934     23937     23938     23931     23934     23937     23939
     23931     23934     23937     23940     23932     23931     23934     23935
     23932     23931     23934     23936     23932     23931     23934     23937
     23933     23931     23934     23935     23933     23931     23934     23936
     23933     23931     23934     23937     23935     23934     23937     23938
     23935     23934     23937     23939     23935     23934     23937     23940
     23936     23934     23937     23938     23936     23934     23937     23939
     23936     23934     23937     23940     23941     23945     23948     23949
     23941     23945     23948     23950     23941     23945     23948     23955
     23942     23941     23945     23946     23942     23941     23945     23947
     23942     23941     23945     23948     23943     23941     23945     23946
     23943     23941     23945     23947     23943     23941     23945     23948
     23944     23941     23945     23946     23944     23941     23945     23947
     23944     23941     23945     23948     23945     23948     23955     23951
     23946     23945     23948     23949     23946     23945     23948     23950
     23946     23945     23948     23955     23947     23945     23948     23949
     23947     23945     23948     23950     23947     23945     23948     23955
     23948     23955     23951     23952     23948     23955     23951     23953
     23948     23955     23951     23954     23949     23948     23955     23951
     23950     23948     23955     23951     23951     23954     23956     23957
     23951     23954     23956     23958     23951     23954     23956     23959
     23952     23951     23954     23956     23953     23951     23954     23956
     23954     23956     23959     23960     23954     23956     23959     23961
     23954     23956     23959     23967     23955     23951     23954     23956
     23956     23959     23961     23962     23956     23959     23967     23968
     23956     23959     23967     23969     23956     23959     23967     23970
     23957     23956     23959     23960     23957     23956     23959     23961
     23957     23956     23959     23967     23958     23956     23959     23960
     23958     23956     23959     23961     23958     23956     23959     23967
     23959     23961     23962     23963     23959     23961     23962     23964
     23959     23967     23970     23971     23960     23959     23961     23962
     23960     23959     23967     23968     23960     23959     23967     23969
     23960     23959     23967     23970     23961     23959     23967     23968
     23961     23959     23967     23969     23961     23959     23967     23970
     23961     23962     23964     23965     23961     23962     23964     23966
     23961     23962     23964     23976     23962     23961     23959     23967
     23962     23964     23976     23977     23962     23964     23976     23978
     23962     23964     23976     23979     23963     23962     23964     23965
     23963     23962     23964     23966     23963     23962     23964     23976
     23964     23976     23979     23980     23964     23976     23979     23981
     23964     23976     23979     23982     23965     23964     23976     23977
     23965     23964     23976     23978     23965     23964     23976     23979
     23966     23964     23976     23977     23966     23964     23976     23978
     23966     23964     23976     23979     23967     23970     23971     23972
     23967     23970     23971     23973     23968     23967     23970     23971
     23969     23967     23970     23971     23970     23971     23973     23974
     23970     23971     23973     23975     23970     23971     23973     24020
     23971     23973     24020     24021     23971     23973     24020     24022
     23971     23973     24020     24023     23972     23971     23973     23974
     23972     23971     23973     23975     23972     23971     23973     24020
     23973     24020     24023     24024     23973     24020     24023     24025
     23973     24020     24023     24026     23974     23973     24020     24021
     23974     23973     24020     24022     23974     23973     24020     24023
     23975     23973     24020     24021     23975     23973     24020     24022
     23975     23973     24020     24023     23976     23979     23982     23983
     23976     23979     23982     23984     23976     23979     23982     23985
     23977     23976     23979     23980     23977     23976     23979     23981
     23977     23976     23979     23982     23978     23976     23979     23980
     23978     23976     23979     23981     23978     23976     23979     23982
     23979     23982     23985     23986     23979     23982     23985     23987
     23979     23982     23985     23988     23980     23979     23982     23983
     23980     23979     23982     23984     23980     23979     23982     23985
     23981     23979     23982     23983     23981     23979     23982     23984
     23981     23979     23982     23985     23982     23985     23988     23989
     23982     23985     23988     23990     23982     23985     23988     23991
     23983     23982     23985     23986     23983     23982     23985     23987
     23983     23982     23985     23988     23984     23982     23985     23986
     23984     23982     23985     23987     23984     23982     23985     23988
     23985     23988     23991     23992     23985     23988     23991     23993
     23985     23988     23991     23994     23986     23985     23988     23989
     23986     23985     23988     23990     23986     23985     23988     23991
     23987     23985     23988     23989     23987     23985     23988     23990
     23987     23985     23988     23991     23988     23991     23994     23995
     23988     23991     23994     23996     23988     23991     23994     23999
     23989     23988     23991     23992     23989     23988     23991     23993
     23989     23988     23991     23994     23990     23988     23991     23992
     23990     23988     23991     23993     23990     23988     23991     23994
     23991     23994     23996     23997     23991     23994     23996     23998
     23991     23994     23996     23999     23991     23994     23999     23996
     23991     23994     23999     24000     23991     23994     23999     24001
     23992     23991     23994     23995     23992     23991     23994     23996
     23992     23991     23994     23999     23993     23991     23994     23995
     23993     23991     23994     23996     23993     23991     23994     23999
     23994     23996     23999     24000     23994     23996     23999     24001
     23994     23999     23996     23997     23994     23999     23996     23998
     23994     23999     24001     24002     23994     23999     24001     24003
     23994     23999     24001     24004     23995     23994     23996     23997
     23995     23994     23996     23998     23995     23994     23996     23999
     23995     23994     23999     23996     23995     23994     23999     24000
     23995     23994     23999     24001     23996     23994     23999     24000
     23996     23994     23999     24001     23996     23999     24001     24002
     23996     23999     24001     24003     23996     23999     24001     24004
     23997     23996     23994     23999     23997     23996     23999     24000
     23997     23996     23999     24001     23998     23996     23994     23999
     23998     23996     23999     24000     23998     23996     23999     24001
     23999     24001     24004     24005     23999     24001     24004     24006
     23999     24001     24004     24007     24000     23999     24001     24002
     24000     23999     24001     24003     24000     23999     24001     24004
     24001     24004     24007     24008     24001     24004     24007     24009
     24001     24004     24007     24010     24002     24001     24004     24005
     24002     24001     24004     24006     24002     24001     24004     24007
     24003     24001     24004     24005     24003     24001     24004     24006
     24003     24001     24004     24007     24004     24007     24010     24011
     24004     24007     24010     24012     24004     24007     24010     24013
     24005     24004     24007     24008     24005     24004     24007     24009
     24005     24004     24007     24010     24006     24004     24007     24008
     24006     24004     24007     24009     24006     24004     24007     24010
     24007     24010     24013     24014     24007     24010     24013     24015
     24007     24010     24013     24016     24008     24007     24010     24011
     24008     24007     24010     24012     24008     24007     24010     24013
     24009     24007     24010     24011     24009     24007     24010     24012
     24009     24007     24010     24013     24010     24013     24016     24017
     24010     24013     24016     24018     24010     24013     24016     24019
     24011     24010     24013     24014     24011     24010     24013     24015
     24011     24010     24013     24016     24012     24010     24013     24014
     24012     24010     24013     24015     24012     24010     24013     24016
     24014     24013     24016     24017     24014     24013     24016     24018
     24014     24013     24016     24019     24015     24013     24016     24017
     24015     24013     24016     24018     24015     24013     24016     24019
     24020     24023     24026     24027     24020     24023     24026     24028
     24020     24023     24026     24029     24021     24020     24023     24024
     24021     24020     24023     24025     24021     24020     24023     24026
     24022     24020     24023     24024     24022     24020     24023     24025
     24022     24020     24023     24026     24023     24026     24029     24030
     24023     24026     24029     24031     24023     24026     24029     24032
     24024     24023     24026     24027     24024     24023     24026     24028
     24024     24023     24026     24029     24025     24023     24026     24027
     24025     24023     24026     24028     24025     24023     24026     24029
     24026     24029     24032     24033     24026     24029     24032     24034
     24026     24029     24032     24035     24027     24026     24029     24030
     24027     24026     24029     24031     24027     24026     24029     24032
     24028     24026     24029     24030     24028     24026     24029     24031
     24028     24026     24029     24032     24029     24032     24035     24036
     24029     24032     24035     24037     24029     24032     24035     24038
     24030     24029     24032     24033     24030     24029     24032     24034
     24030     24029     24032     24035     24031     24029     24032     24033
     24031     24029     24032     24034     24031     24029     24032     24035
     24032     24035     24038     24039     24032     24035     24038     24040
     24032     24035     24038     24041     24033     24032     24035     24036
     24033     24032     24035     24037     24033     24032     24035     24038
     24034     24032     24035     24036     24034     24032     24035     24037
     24034     24032     24035     24038     24035     24038     24041     24042
     24035     24038     24041     24043     24035     24038     24041     24044
     24036     24035     24038     24039     24036     24035     24038     24040
     24036     24035     24038     24041     24037     24035     24038     24039
     24037     24035     24038     24040     24037     24035     24038     24041
     24038     24041     24044     24045     24038     24041     24044     24046
     24038     24041     24044     24047     24039     24038     24041     24042
     24039     24038     24041     24043     24039     24038     24041     24044
     24040     24038     24041     24042     24040     24038     24041     24043
     24040     24038     24041     24044     24041     24044     24047     24048
     24041     24044     24047     24049     24041     24044     24047     24050
     24042     24041     24044     24045     24042     24041     24044     24046
     24042     24041     24044     24047     24043     24041     24044     24045
     24043     24041     24044     24046     24043     24041     24044     24047
     24044     24047     24050     24051     24044     24047     24050     24052
     24044     24047     24050     24053     24045     24044     24047     24048
     24045     24044     24047     24049     24045     24044     24047     24050
     24046     24044     24047     24048     24046     24044     24047     24049
     24046     24044     24047     24050     24047     24050     24053     24054
     24047     24050     24053     24055     24047     24050     24053     24056
     24048     24047     24050     24051     24048     24047     24050     24052
     24048     24047     24050     24053     24049     24047     24050     24051
     24049     24047     24050     24052     24049     24047     24050     24053
     24050     24053     24056     24057     24050     24053     24056     24058
     24050     24053     24056     24059     24051     24050     24053     24054
     24051     24050     24053     24055     24051     24050     24053     24056
     24052     24050     24053     24054     24052     24050     24053     24055
     24052     24050     24053     24056     24053     24056     24059     24060
     24053     24056     24059     24061     24053     24056     24059     24062
     24054     24053     24056     24057     24054     24053     24056     24058
     24054     24053     24056     24059     24055     24053     24056     24057
     24055     24053     24056     24058     24055     24053     24056     24059
     24057     24056     24059     24060     24057     24056     24059     24061
     24057     24056     24059     24062     24058     24056     24059     24060
     24058     24056     24059     24061     24058     24056     24059     24062
     24063     24067     24070     24071     24063     24067     24070     24072
     24063     24067     24070     24077     24064     24063     24067     24068
     24064     24063     24067     24069     24064     24063     24067     24070
     24065     24063     24067     24068     24065     24063     24067     24069
     24065     24063     24067     24070     24066     24063     24067     24068
     24066     24063     24067     24069     24066     24063     24067     24070
     24067     24070     24077     24073     24068     24067     24070     24071
     24068     24067     24070     24072     24068     24067     24070     24077
     24069     24067     24070     24071     24069     24067     24070     24072
     24069     24067     24070     24077     24070     24077     24073     24074
     24070     24077     24073     24075     24070     24077     24073     24076
     24071     24070     24077     24073     24072     24070     24077     24073
     24073     24076     24078     24079     24073     24076     24078     24080
     24073     24076     24078     24081     24074     24073     24076     24078
     24075     24073     24076     24078     24076     24078     24081     24082
     24076     24078     24081     24083     24076     24078     24081     24089
     24077     24073     24076     24078     24078     24081     24083     24084
     24078     24081     24089     24090     24078     24081     24089     24091
     24078     24081     24089     24092     24079     24078     24081     24082
     24079     24078     24081     24083     24079     24078     24081     24089
     24080     24078     24081     24082     24080     24078     24081     24083
     24080     24078     24081     24089     24081     24083     24084     24085
     24081     24083     24084     24086     24081     24089     24092     24093
     24082     24081     24083     24084     24082     24081     24089     24090
     24082     24081     24089     24091     24082     24081     24089     24092
     24083     24081     24089     24090     24083     24081     24089     24091
     24083     24081     24089     24092     24083     24084     24086     24087
     24083     24084     24086     24088     24083     24084     24086     24098
     24084     24083     24081     24089     24084     24086     24098     24099
     24084     24086     24098     24100     24084     24086     24098     24101
     24085     24084     24086     24087     24085     24084     24086     24088
     24085     24084     24086     24098     24086     24098     24101     24102
     24086     24098     24101     24103     24086     24098     24101     24104
     24087     24086     24098     24099     24087     24086     24098     24100
     24087     24086     24098     24101     24088     24086     24098     24099
     24088     24086     24098     24100     24088     24086     24098     24101
     24089     24092     24093     24094     24089     24092     24093     24095
     24090     24089     24092     24093     24091     24089     24092     24093
     24092     24093     24095     24096     24092     24093     24095     24097
     24092     24093     24095     24145     24093     24095     24145     24146
     24093     24095     24145     24147     24093     24095     24145     24148
     24094     24093     24095     24096     24094     24093     24095     24097
     24094     24093     24095     24145     24095     24145     24148     24149
     24095     24145     24148     24150     24095     24145     24148     24151
     24096     24095     24145     24146     24096     24095     24145     24147
     24096     24095     24145     24148     24097     24095     24145     24146
     24097     24095     24145     24147     24097     24095     24145     24148
     24098     24101     24104     24105     24098     24101     24104     24106
     24098     24101     24104     24107     24099     24098     24101     24102
     24099     24098     24101     24103     24099     24098     24101     24104
     24100     24098     24101     24102     24100     24098     24101     24103
     24100     24098     24101     24104     24101     24104     24107     24108
     24101     24104     24107     24109     24101     24104     24107     24110
     24102     24101     24104     24105     24102     24101     24104     24106
     24102     24101     24104     24107     24103     24101     24104     24105
     24103     24101     24104     24106     24103     24101     24104     24107
     24104     24107     24110     24111     24104     24107     24110     24112
     24104     24107     24110     24113     24105     24104     24107     24108
     24105     24104     24107     24109     24105     24104     24107     24110
     24106     24104     24107     24108     24106     24104     24107     24109
     24106     24104     24107     24110     24107     24110     24113     24114
     24107     24110     24113     24115     24107     24110     24113     24116
     24108     24107     24110     24111     24108     24107     24110     24112
     24108     24107     24110     24113     24109     24107     24110     24111
     24109     24107     24110     24112     24109     24107     24110     24113
     24110     24113     24116     24117     24110     24113     24116     24118
     24111     24110     24113     24114     24111     24110     24113     24115
     24111     24110     24113     24116     24112     24110     24113     24114
     24112     24110     24113     24115     24112     24110     24113     24116
     24113     24116     24118     24119     24113     24116     24118     24120
     24114     24113     24116     24117     24114     24113     24116     24118
     24115     24113     24116     24117     24115     24113     24116     24118
     24116     24118     24120     24121     24116     24118     24120     24122
     24116     24118     24120     24123     24117     24116     24118     24119
     24117     24116     24118     24120     24118     24120     24123     24124
     24118     24120     24123     24125     24118     24120     24123     24126
     24119     24118     24120     24121     24119     24118     24120     24122
     24119     24118     24120     24123     24120     24123     24126     24127
     24120     24123     24126     24128     24120     24123     24126     24129
     24121     24120     24123     24124     24121     24120     24123     24125
     24121     24120     24123     24126     24122     24120     24123     24124
     24122     24120     24123     24125     24122     24120     24123     24126
     24123     24126     24129     24130     24123     24126     24129     24131
     24123     24126     24129     24132     24124     24123     24126     24127
     24124     24123     24126     24128     24124     24123     24126     24129
     24125     24123     24126     24127     24125     24123     24126     24128
     24125     24123     24126     24129     24126     24129     24132     24133
     24126     24129     24132     24134     24126     24129     24132     24135
     24127     24126     24129     24130     24127     24126     24129     24131
     24127     24126     24129     24132     24128     24126     24129     24130
     24128     24126     24129     24131     24128     24126     24129     24132
     24129     24132     24135     24136     24129     24132     24135     24137
     24129     24132     24135     24138     24130     24129     24132     24133
     24130     24129     24132     24134     24130     24129     24132     24135
     24131     24129     24132     24133     24131     24129     24132     24134
     24131     24129     24132     24135     24132     24135     24138     24139
     24132     24135     24138     24140     24132     24135     24138     24141
     24133     24132     24135     24136     24133     24132     24135     24137
     24133     24132     24135     24138     24134     24132     24135     24136
     24134     24132     24135     24137     24134     24132     24135     24138
     24135     24138     24141     24142     24135     24138     24141     24143
     24135     24138     24141     24144     24136     24135     24138     24139
     24136     24135     24138     24140     24136     24135     24138     24141
     24137     24135     24138     24139     24137     24135     24138     24140
     24137     24135     24138     24141     24139     24138     24141     24142
     24139     24138     24141     24143     24139     24138     24141     24144
     24140     24138     24141     24142     24140     24138     24141     24143
     24140     24138     24141     24144     24145     24148     24151     24152
     24145     24148     24151     24153     24145     24148     24151     24154
     24146     24145     24148     24149     24146     24145     24148     24150
     24146     24145     24148     24151     24147     24145     24148     24149
     24147     24145     24148     24150     24147     24145     24148     24151
     24148     24151     24154     24155     24148     24151     24154     24156
     24148     24151     24154     24157     24149     24148     24151     24152
     24149     24148     24151     24153     24149     24148     24151     24154
     24150     24148     24151     24152     24150     24148     24151     24153
     24150     24148     24151     24154     24151     24154     24157     24158
     24151     24154     24157     24159     24151     24154     24157     24160
     24152     24151     24154     24155     24152     24151     24154     24156
     24152     24151     24154     24157     24153     24151     24154     24155
     24153     24151     24154     24156     24153     24151     24154     24157
     24154     24157     24160     24161     24154     24157     24160     24162
     24154     24157     24160     24163     24155     24154     24157     24158
     24155     24154     24157     24159     24155     24154     24157     24160
     24156     24154     24157     24158     24156     24154     24157     24159
     24156     24154     24157     24160     24157     24160     24163     24164
     24157     24160     24163     24165     24157     24160     24163     24166
     24158     24157     24160     24161     24158     24157     24160     24162
     24158     24157     24160     24163     24159     24157     24160     24161
     24159     24157     24160     24162     24159     24157     24160     24163
     24160     24163     24166     24167     24160     24163     24166     24168
     24160     24163     24166     24169     24161     24160     24163     24164
     24161     24160     24163     24165     24161     24160     24163     24166
     24162     24160     24163     24164     24162     24160     24163     24165
     24162     24160     24163     24166     24163     24166     24169     24170
     24163     24166     24169     24171     24163     24166     24169     24172
     24164     24163     24166     24167     24164     24163     24166     24168
     24164     24163     24166     24169     24165     24163     24166     24167
     24165     24163     24166     24168     24165     24163     24166     24169
     24166     24169     24172     24173     24166     24169     24172     24174
     24166     24169     24172     24175     24167     24166     24169     24170
     24167     24166     24169     24171     24167     24166     24169     24172
     24168     24166     24169     24170     24168     24166     24169     24171
     24168     24166     24169     24172     24169     24172     24175     24176
     24169     24172     24175     24177     24169     24172     24175     24178
     24170     24169     24172     24173     24170     24169     24172     24174
     24170     24169     24172     24175     24171     24169     24172     24173
     24171     24169     24172     24174     24171     24169     24172     24175
     24172     24175     24178     24179     24172     24175     24178     24180
     24172     24175     24178     24181     24173     24172     24175     24176
     24173     24172     24175     24177     24173     24172     24175     24178
     24174     24172     24175     24176     24174     24172     24175     24177
     24174     24172     24175     24178     24175     24178     24181     24182
     24175     24178     24181     24183     24175     24178     24181     24184
     24176     24175     24178     24179     24176     24175     24178     24180
     24176     24175     24178     24181     24177     24175     24178     24179
     24177     24175     24178     24180     24177     24175     24178     24181
     24178     24181     24184     24185     24178     24181     24184     24186
     24178     24181     24184     24187     24179     24178     24181     24182
     24179     24178     24181     24183     24179     24178     24181     24184
     24180     24178     24181     24182     24180     24178     24181     24183
     24180     24178     24181     24184     24182     24181     24184     24185
     24182     24181     24184     24186     24182     24181     24184     24187
     24183     24181     24184     24185     24183     24181     24184     24186
     24183     24181     24184     24187     24188     24194     24191     24192
     24188     24194     24191     24193     24188     24194     24191     24195
     24188     24199     24201     24202     24188     24199     24203     24204
     24188     24199     24203     24205     24188     24199     24203     24209
     24189     24188     24194     24191     24189     24188     24199     24200
     24189     24188     24199     24201     24189     24188     24199     24203
     24190     24188     24194     24191     24190     24188     24199     24200
     24190     24188     24199     24201     24190     24188     24199     24203
     24191     24194     24188     24199     24191     24195     24196     24197
     24191     24195     24196     24198     24191     24195     24196     24231
     24192     24191     24195     24196     24193     24191     24195     24196
     24194     24188     24199     24200     24194     24188     24199     24201
     24194     24188     24199     24203     24194     24191     24195     24196
     24195     24196     24231     24232     24195     24196     24231     24233
     24195     24196     24231     24239     24196     24231     24233     24234
     24196     24231     24239     24240     24196     24231     24239     24241
     24196     24231     24239     24242     24197     24196     24231     24232
     24197     24196     24231     24233     24197     24196     24231     24239
     24198     24196     24231     24232     24198     24196     24231     24233
     24198     24196     24231     24239     24199     24203     24209     24206
     24200     24199     24201     24202     24200     24199     24203     24204
     24200     24199     24203     24205     24200     24199     24203     24209
     24201     24199     24203     24204     24201     24199     24203     24205
     24201     24199     24203     24209     24202     24201     24199     24203
     24203     24209     24206     24207     24203     24209     24206     24208
     24203     24209     24206     24210     24204     24203     24209     24206
     24205     24203     24209     24206     24206     24210     24211     24212
     24206     24210     24211     24213     24206     24210     24211     24214
     24207     24206     24210     24211     24208     24206     24210     24211
     24209     24206     24210     24211     24210     24211     24214     24215
     24210     24211     24214     24216     24210     24211     24214     24222
     24211     24214     24216     24217     24211     24214     24222     24223
     24211     24214     24222     24224     24211     24214     24222     24225
     24212     24211     24214     24215     24212     24211     24214     24216
     24212     24211     24214     24222     24213     24211     24214     24215
     24213     24211     24214     24216     24213     24211     24214     24222
     24214     24216     24217     24218     24214     24216     24217     24219
     24214     24222     24225     24226     24215     24214     24216     24217
     24215     24214     24222     24223     24215     24214     24222     24224
     24215     24214     24222     24225     24216     24214     24222     24223
     24216     24214     24222     24224     24216     24214     24222     24225
     24216     24217     24219     24220     24216     24217     24219     24221
     24216     24217     24219     24248     24217     24216     24214     24222
     24217     24219     24248     24249     24217     24219     24248     24250
     24217     24219     24248     24251     24218     24217     24219     24220
     24218     24217     24219     24221     24218     24217     24219     24248
     24219     24248     24251     24252     24219     24248     24251     24253
     24219     24248     24251     24254     24220     24219     24248     24249
     24220     24219     24248     24250     24220     24219     24248     24251
     24221     24219     24248     24249     24221     24219     24248     24250
     24221     24219     24248     24251     24222     24225     24226     24227
     24222     24225     24226     24228     24223     24222     24225     24226
     24224     24222     24225     24226     24225     24226     24228     24229
     24225     24226     24228     24230     24225     24226     24228     24295
     24226     24228     24295     24296     24226     24228     24295     24297
     24226     24228     24295     24298     24227     24226     24228     24229
     24227     24226     24228     24230     24227     24226     24228     24295
     24228     24295     24298     24299     24228     24295     24298     24300
     24228     24295     24298     24301     24229     24228     24295     24296
     24229     24228     24295     24297     24229     24228     24295     24298
     24230     24228     24295     24296     24230     24228     24295     24297
     24230     24228     24295     24298     24231     24233     24234     24235
     24231     24233     24234     24236     24231     24239     24242     24243
     24232     24231     24233     24234     24232     24231     24239     24240
     24232     24231     24239     24241     24232     24231     24239     24242
     24233     24231     24239     24240     24233     24231     24239     24241
     24233     24231     24239     24242     24233     24234     24236     24237
     24233     24234     24236     24238     24233     24234     24236     24338
     24234     24233     24231     24239     24234     24236     24338     24339
     24234     24236     24338     24340     24234     24236     24338     24341
     24235     24234     24236     24237     24235     24234     24236     24238
     24235     24234     24236     24338     24236     24338     24341     24342
     24236     24338     24341     24343     24236     24338     24341     24344
     24237     24236     24338     24339     24237     24236     24338     24340
     24237     24236     24338     24341     24238     24236     24338     24339
     24238     24236     24338     24340     24238     24236     24338     24341
     24239     24242     24243     24244     24239     24242     24243     24245
     24240     24239     24242     24243     24241     24239     24242     24243
     24242     24243     24245     24246     24242     24243     24245     24247
     24242     24243     24245     24385     24243     24245     24385     24386
     24243     24245     24385     24387     24243     24245     24385     24388
     24244     24243     24245     24246     24244     24243     24245     24247
     24244     24243     24245     24385     24245     24385     24388     24389
     24245     24385     24388     24390     24245     24385     24388     24391
     24246     24245     24385     24386     24246     24245     24385     24387
     24246     24245     24385     24388     24247     24245     24385     24386
     24247     24245     24385     24387     24247     24245     24385     24388
     24248     24251     24254     24255     24248     24251     24254     24256
     24248     24251     24254     24257     24249     24248     24251     24252
     24249     24248     24251     24253     24249     24248     24251     24254
     24250     24248     24251     24252     24250     24248     24251     24253
     24250     24248     24251     24254     24251     24254     24257     24258
     24251     24254     24257     24259     24251     24254     24257     24260
     24252     24251     24254     24255     24252     24251     24254     24256
     24252     24251     24254     24257     24253     24251     24254     24255
     24253     24251     24254     24256     24253     24251     24254     24257
     24254     24257     24260     24261     24254     24257     24260     24262
     24254     24257     24260     24263     24255     24254     24257     24258
     24255     24254     24257     24259     24255     24254     24257     24260
     24256     24254     24257     24258     24256     24254     24257     24259
     24256     24254     24257     24260     24257     24260     24263     24264
     24257     24260     24263     24265     24257     24260     24263     24266
     24258     24257     24260     24261     24258     24257     24260     24262
     24258     24257     24260     24263     24259     24257     24260     24261
     24259     24257     24260     24262     24259     24257     24260     24263
     24260     24263     24266     24267     24260     24263     24266     24268
     24260     24263     24266     24269     24261     24260     24263     24264
     24261     24260     24263     24265     24261     24260     24263     24266
     24262     24260     24263     24264     24262     24260     24263     24265
     24262     24260     24263     24266     24263     24266     24269     24270
     24263     24266     24269     24271     24263     24266     24269     24272
     24264     24263     24266     24267     24264     24263     24266     24268
     24264     24263     24266     24269     24265     24263     24266     24267
     24265     24263     24266     24268     24265     24263     24266     24269
     24266     24269     24272     24273     24266     24269     24272     24274
     24267     24266     24269     24270     24267     24266     24269     24271
     24267     24266     24269     24272     24268     24266     24269     24270
     24268     24266     24269     24271     24268     24266     24269     24272
     24269     24272     24274     24275     24269     24272     24274     24276
     24270     24269     24272     24273     24270     24269     24272     24274
     24271     24269     24272     24273     24271     24269     24272     24274
     24272     24274     24276     24277     24272     24274     24276     24278
     24272     24274     24276     24279     24273     24272     24274     24275
     24273     24272     24274     24276     24274     24276     24279     24280
     24274     24276     24279     24281     24274     24276     24279     24282
     24275     24274     24276     24277     24275     24274     24276     24278
     24275     24274     24276     24279     24276     24279     24282     24283
     24276     24279     24282     24284     24276     24279     24282     24285
     24277     24276     24279     24280     24277     24276     24279     24281
     24277     24276     24279     24282     24278     24276     24279     24280
     24278     24276     24279     24281     24278     24276     24279     24282
     24279     24282     24285     24286     24279     24282     24285     24287
     24279     24282     24285     24288     24280     24279     24282     24283
     24280     24279     24282     24284     24280     24279     24282     24285
     24281     24279     24282     24283     24281     24279     24282     24284
     24281     24279     24282     24285     24282     24285     24288     24289
     24282     24285     24288     24290     24282     24285     24288     24291
     24283     24282     24285     24286     24283     24282     24285     24287
     24283     24282     24285     24288     24284     24282     24285     24286
     24284     24282     24285     24287     24284     24282     24285     24288
     24285     24288     24291     24292     24285     24288     24291     24293
     24285     24288     24291     24294     24286     24285     24288     24289
     24286     24285     24288     24290     24286     24285     24288     24291
     24287     24285     24288     24289     24287     24285     24288     24290
     24287     24285     24288     24291     24289     24288     24291     24292
     24289     24288     24291     24293     24289     24288     24291     24294
     24290     24288     24291     24292     24290     24288     24291     24293
     24290     24288     24291     24294     24295     24298     24301     24302
     24295     24298     24301     24303     24295     24298     24301     24304
     24296     24295     24298     24299     24296     24295     24298     24300
     24296     24295     24298     24301     24297     24295     24298     24299
     24297     24295     24298     24300     24297     24295     24298     24301
     24298     24301     24304     24305     24298     24301     24304     24306
     24298     24301     24304     24307     24299     24298     24301     24302
     24299     24298     24301     24303     24299     24298     24301     24304
     24300     24298     24301     24302     24300     24298     24301     24303
     24300     24298     24301     24304     24301     24304     24307     24308
     24301     24304     24307     24309     24301     24304     24307     24310
     24302     24301     24304     24305     24302     24301     24304     24306
     24302     24301     24304     24307     24303     24301     24304     24305
     24303     24301     24304     24306     24303     24301     24304     24307
     24304     24307     24310     24311     24304     24307     24310     24312
     24304     24307     24310     24313     24305     24304     24307     24308
     24305     24304     24307     24309     24305     24304     24307     24310
     24306     24304     24307     24308     24306     24304     24307     24309
     24306     24304     24307     24310     24307     24310     24313     24314
     24307     24310     24313     24315     24307     24310     24313     24316
     24308     24307     24310     24311     24308     24307     24310     24312
     24308     24307     24310     24313     24309     24307     24310     24311
     24309     24307     24310     24312     24309     24307     24310     24313
     24310     24313     24316     24317     24310     24313     24316     24318
     24310     24313     24316     24319     24311     24310     24313     24314
     24311     24310     24313     24315     24311     24310     24313     24316
     24312     24310     24313     24314     24312     24310     24313     24315
     24312     24310     24313     24316     24313     24316     24319     24320
     24313     24316     24319     24321     24313     24316     24319     24322
     24314     24313     24316     24317     24314     24313     24316     24318
     24314     24313     24316     24319     24315     24313     24316     24317
     24315     24313     24316     24318     24315     24313     24316     24319
     24316     24319     24322     24323     24316     24319     24322     24324
     24316     24319     24322     24325     24317     24316     24319     24320
     24317     24316     24319     24321     24317     24316     24319     24322
     24318     24316     24319     24320     24318     24316     24319     24321
     24318     24316     24319     24322     24319     24322     24325     24326
     24319     24322     24325     24327     24319     24322     24325     24328
     24320     24319     24322     24323     24320     24319     24322     24324
     24320     24319     24322     24325     24321     24319     24322     24323
     24321     24319     24322     24324     24321     24319     24322     24325
     24322     24325     24328     24329     24322     24325     24328     24330
     24322     24325     24328     24331     24323     24322     24325     24326
     24323     24322     24325     24327     24323     24322     24325     24328
     24324     24322     24325     24326     24324     24322     24325     24327
     24324     24322     24325     24328     24325     24328     24331     24332
     24325     24328     24331     24333     24325     24328     24331     24334
     24326     24325     24328     24329     24326     24325     24328     24330
     24326     24325     24328     24331     24327     24325     24328     24329
     24327     24325     24328     24330     24327     24325     24328     24331
     24328     24331     24334     24335     24328     24331     24334     24336
     24328     24331     24334     24337     24329     24328     24331     24332
     24329     24328     24331     24333     24329     24328     24331     24334
     24330     24328     24331     24332     24330     24328     24331     24333
     24330     24328     24331     24334     24332     24331     24334     24335
     24332     24331     24334     24336     24332     24331     24334     24337
     24333     24331     24334     24335     24333     24331     24334     24336
     24333     24331     24334     24337     24338     24341     24344     24345
     24338     24341     24344     24346     24338     24341     24344     24347
     24339     24338     24341     24342     24339     24338     24341     24343
     24339     24338     24341     24344     24340     24338     24341     24342
     24340     24338     24341     24343     24340     24338     24341     24344
     24341     24344     24347     24348     24341     24344     24347     24349
     24341     24344     24347     24350     24342     24341     24344     24345
     24342     24341     24344     24346     24342     24341     24344     24347
     24343     24341     24344     24345     24343     24341     24344     24346
     24343     24341     24344     24347     24344     24347     24350     24351
     24344     24347     24350     24352     24344     24347     24350     24353
     24345     24344     24347     24348     24345     24344     24347     24349
     24345     24344     24347     24350     24346     24344     24347     24348
     24346     24344     24347     24349     24346     24344     24347     24350
     24347     24350     24353     24354     24347     24350     24353     24355
     24347     24350     24353     24356     24348     24347     24350     24351
     24348     24347     24350     24352     24348     24347     24350     24353
     24349     24347     24350     24351     24349     24347     24350     24352
     24349     24347     24350     24353     24350     24353     24356     24357
     24350     24353     24356     24358     24350     24353     24356     24359
     24351     24350     24353     24354     24351     24350     24353     24355
     24351     24350     24353     24356     24352     24350     24353     24354
     24352     24350     24353     24355     24352     24350     24353     24356
     24353     24356     24359     24360     24353     24356     24359     24361
     24353     24356     24359     24362     24354     24353     24356     24357
     24354     24353     24356     24358     24354     24353     24356     24359
     24355     24353     24356     24357     24355     24353     24356     24358
     24355     24353     24356     24359     24356     24359     24362     24363
     24356     24359     24362     24364     24357     24356     24359     24360
     24357     24356     24359     24361     24357     24356     24359     24362
     24358     24356     24359     24360     24358     24356     24359     24361
     24358     24356     24359     24362     24359     24362     24364     24365
     24359     24362     24364     24366     24360     24359     24362     24363
     24360     24359     24362     24364     24361     24359     24362     24363
     24361     24359     24362     24364     24362     24364     24366     24367
     24362     24364     24366     24368     24362     24364     24366     24369
     24363     24362     24364     24365     24363     24362     24364     24366
     24364     24366     24369     24370     24364     24366     24369     24371
     24364     24366     24369     24372     24365     24364     24366     24367
     24365     24364     24366     24368     24365     24364     24366     24369
     24366     24369     24372     24373     24366     24369     24372     24374
     24366     24369     24372     24375     24367     24366     24369     24370
     24367     24366     24369     24371     24367     24366     24369     24372
     24368     24366     24369     24370     24368     24366     24369     24371
     24368     24366     24369     24372     24369     24372     24375     24376
     24369     24372     24375     24377     24369     24372     24375     24378
     24370     24369     24372     24373     24370     24369     24372     24374
     24370     24369     24372     24375     24371     24369     24372     24373
     24371     24369     24372     24374     24371     24369     24372     24375
     24372     24375     24378     24379     24372     24375     24378     24380
     24372     24375     24378     24381     24373     24372     24375     24376
     24373     24372     24375     24377     24373     24372     24375     24378
     24374     24372     24375     24376     24374     24372     24375     24377
     24374     24372     24375     24378     24375     24378     24381     24382
     24375     24378     24381     24383     24375     24378     24381     24384
     24376     24375     24378     24379     24376     24375     24378     24380
     24376     24375     24378     24381     24377     24375     24378     24379
     24377     24375     24378     24380     24377     24375     24378     24381
     24379     24378     24381     24382     24379     24378     24381     24383
     24379     24378     24381     24384     24380     24378     24381     24382
     24380     24378     24381     24383     24380     24378     24381     24384
     24385     24388     24391     24392     24385     24388     24391     24393
     24385     24388     24391     24394     24386     24385     24388     24389
     24386     24385     24388     24390     24386     24385     24388     24391
     24387     24385     24388     24389     24387     24385     24388     24390
     24387     24385     24388     24391     24388     24391     24394     24395
     24388     24391     24394     24396     24388     24391     24394     24397
     24389     24388     24391     24392     24389     24388     24391     24393
     24389     24388     24391     24394     24390     24388     24391     24392
     24390     24388     24391     24393     24390     24388     24391     24394
     24391     24394     24397     24398     24391     24394     24397     24399
     24391     24394     24397     24400     24392     24391     24394     24395
     24392     24391     24394     24396     24392     24391     24394     24397
     24393     24391     24394     24395     24393     24391     24394     24396
     24393     24391     24394     24397     24394     24397     24400     24401
     24394     24397     24400     24402     24394     24397     24400     24403
     24395     24394     24397     24398     24395     24394     24397     24399
     24395     24394     24397     24400     24396     24394     24397     24398
     24396     24394     24397     24399     24396     24394     24397     24400
     24397     24400     24403     24404     24397     24400     24403     24405
     24397     24400     24403     24406     24398     24397     24400     24401
     24398     24397     24400     24402     24398     24397     24400     24403
     24399     24397     24400     24401     24399     24397     24400     24402
     24399     24397     24400     24403     24400     24403     24406     24407
     24400     24403     24406     24408     24400     24403     24406     24409
     24401     24400     24403     24404     24401     24400     24403     24405
     24401     24400     24403     24406     24402     24400     24403     24404
     24402     24400     24403     24405     24402     24400     24403     24406
     24403     24406     24409     24410     24403     24406     24409     24411
     24403     24406     24409     24412     24404     24403     24406     24407
     24404     24403     24406     24408     24404     24403     24406     24409
     24405     24403     24406     24407     24405     24403     24406     24408
     24405     24403     24406     24409     24406     24409     24412     24413
     24406     24409     24412     24414     24406     24409     24412     24415
     24407     24406     24409     24410     24407     24406     24409     24411
     24407     24406     24409     24412     24408     24406     24409     24410
     24408     24406     24409     24411     24408     24406     24409     24412
     24409     24412     24415     24416     24409     24412     24415     24417
     24409     24412     24415     24418     24410     24409     24412     24413
     24410     24409     24412     24414     24410     24409     24412     24415
     24411     24409     24412     24413     24411     24409     24412     24414
     24411     24409     24412     24415     24412     24415     24418     24419
     24412     24415     24418     24420     24412     24415     24418     24421
     24413     24412     24415     24416     24413     24412     24415     24417
     24413     24412     24415     24418     24414     24412     24415     24416
     24414     24412     24415     24417     24414     24412     24415     24418
     24415     24418     24421     24422     24415     24418     24421     24423
     24415     24418     24421     24424     24416     24415     24418     24419
     24416     24415     24418     24420     24416     24415     24418     24421
     24417     24415     24418     24419     24417     24415     24418     24420
     24417     24415     24418     24421     24418     24421     24424     24425
     24418     24421     24424     24426     24418     24421     24424     24427
     24419     24418     24421     24422     24419     24418     24421     24423
     24419     24418     24421     24424     24420     24418     24421     24422
     24420     24418     24421     24423     24420     24418     24421     24424
     24422     24421     24424     24425     24422     24421     24424     24426
     24422     24421     24424     24427     24423     24421     24424     24425
     24423     24421     24424     24426     24423     24421     24424     24427
     24428     24433     24435     24436     24428     24433     24437     24438
     24428     24433     24437     24439     24428     24433     24437     24444
     24429     24428     24431     24432     24429     24428     24433     24434
     24429     24428     24433     24435     24429     24428     24433     24437
     24430     24428     24431     24432     24430     24428     24433     24434
     24430     24428     24433     24435     24430     24428     24433     24437
     24431     24428     24433     24434     24431     24428     24433     24435
     24431     24428     24433     24437     24432     24431     24428     24433
     24433     24437     24444     24440     24434     24433     24435     24436
     24434     24433     24437     24438     24434     24433     24437     24439
     24434     24433     24437     24444     24435     24433     24437     24438
     24435     24433     24437     24439     24435     24433     24437     24444
     24436     24435     24433     24437     24437     24444     24440     24441
     24437     24444     24440     24442     24437     24444     24440     24443
     24438     24437     24444     24440     24439     24437     24444     24440
     24440     24443     24445     24446     24440     24443     24445     24447
     24440     24443     24445     24448     24441     24440     24443     24445
     24442     24440     24443     24445     24443     24445     24448     24449
     24443     24445     24448     24450     24443     24445     24448     24456
     24444     24440     24443     24445     24445     24448     24450     24451
     24445     24448     24456     24457     24445     24448     24456     24458
     24445     24448     24456     24459     24446     24445     24448     24449
     24446     24445     24448     24450     24446     24445     24448     24456
     24447     24445     24448     24449     24447     24445     24448     24450
     24447     24445     24448     24456     24448     24450     24451     24452
     24448     24450     24451     24453     24448     24456     24459     24460
     24449     24448     24450     24451     24449     24448     24456     24457
     24449     24448     24456     24458     24449     24448     24456     24459
     24450     24448     24456     24457     24450     24448     24456     24458
     24450     24448     24456     24459     24450     24451     24453     24454
     24450     24451     24453     24455     24450     24451     24453     24465
     24451     24450     24448     24456     24451     24453     24465     24466
     24451     24453     24465     24467     24451     24453     24465     24468
     24452     24451     24453     24454     24452     24451     24453     24455
     24452     24451     24453     24465     24453     24465     24468     24469
     24453     24465     24468     24470     24453     24465     24468     24471
     24454     24453     24465     24466     24454     24453     24465     24467
     24454     24453     24465     24468     24455     24453     24465     24466
     24455     24453     24465     24467     24455     24453     24465     24468
     24456     24459     24460     24461     24456     24459     24460     24462
     24457     24456     24459     24460     24458     24456     24459     24460
     24459     24460     24462     24463     24459     24460     24462     24464
     24459     24460     24462     24509     24460     24462     24509     24510
     24460     24462     24509     24511     24460     24462     24509     24512
     24461     24460     24462     24463     24461     24460     24462     24464
     24461     24460     24462     24509     24462     24509     24512     24513
     24462     24509     24512     24514     24462     24509     24512     24515
     24463     24462     24509     24510     24463     24462     24509     24511
     24463     24462     24509     24512     24464     24462     24509     24510
     24464     24462     24509     24511     24464     24462     24509     24512
     24465     24468     24471     24472     24465     24468     24471     24473
     24465     24468     24471     24474     24466     24465     24468     24469
     24466     24465     24468     24470     24466     24465     24468     24471
     24467     24465     24468     24469     24467     24465     24468     24470
     24467     24465     24468     24471     24468     24471     24474     24475
     24468     24471     24474     24476     24468     24471     24474     24477
     24469     24468     24471     24472     24469     24468     24471     24473
     24469     24468     24471     24474     24470     24468     24471     24472
     24470     24468     24471     24473     24470     24468     24471     24474
     24471     24474     24477     24478     24471     24474     24477     24479
     24471     24474     24477     24480     24472     24471     24474     24475
     24472     24471     24474     24476     24472     24471     24474     24477
     24473     24471     24474     24475     24473     24471     24474     24476
     24473     24471     24474     24477     24474     24477     24480     24481
     24474     24477     24480     24482     24474     24477     24480     24483
     24475     24474     24477     24478     24475     24474     24477     24479
     24475     24474     24477     24480     24476     24474     24477     24478
     24476     24474     24477     24479     24476     24474     24477     24480
     24477     24480     24483     24484     24477     24480     24483     24485
     24477     24480     24483     24488     24478     24477     24480     24481
     24478     24477     24480     24482     24478     24477     24480     24483
     24479     24477     24480     24481     24479     24477     24480     24482
     24479     24477     24480     24483     24480     24483     24485     24486
     24480     24483     24485     24487     24480     24483     24485     24488
     24480     24483     24488     24485     24480     24483     24488     24489
     24480     24483     24488     24490     24481     24480     24483     24484
     24481     24480     24483     24485     24481     24480     24483     24488
     24482     24480     24483     24484     24482     24480     24483     24485
     24482     24480     24483     24488     24483     24485     24488     24489
     24483     24485     24488     24490     24483     24488     24485     24486
     24483     24488     24485     24487     24483     24488     24490     24491
     24483     24488     24490     24492     24483     24488     24490     24493
     24484     24483     24485     24486     24484     24483     24485     24487
     24484     24483     24485     24488     24484     24483     24488     24485
     24484     24483     24488     24489     24484     24483     24488     24490
     24485     24483     24488     24489     24485     24483     24488     24490
     24485     24488     24490     24491     24485     24488     24490     24492
     24485     24488     24490     24493     24486     24485     24483     24488
     24486     24485     24488     24489     24486     24485     24488     24490
     24487     24485     24483     24488     24487     24485     24488     24489
     24487     24485     24488     24490     24488     24490     24493     24494
     24488     24490     24493     24495     24488     24490     24493     24496
     24489     24488     24490     24491     24489     24488     24490     24492
     24489     24488     24490     24493     24490     24493     24496     24497
     24490     24493     24496     24498     24490     24493     24496     24499
     24491     24490     24493     24494     24491     24490     24493     24495
     24491     24490     24493     24496     24492     24490     24493     24494
     24492     24490     24493     24495     24492     24490     24493     24496
     24493     24496     24499     24500     24493     24496     24499     24501
     24493     24496     24499     24502     24494     24493     24496     24497
     24494     24493     24496     24498     24494     24493     24496     24499
     24495     24493     24496     24497     24495     24493     24496     24498
     24495     24493     24496     24499     24496     24499     24502     24503
     24496     24499     24502     24504     24496     24499     24502     24505
     24497     24496     24499     24500     24497     24496     24499     24501
     24497     24496     24499     24502     24498     24496     24499     24500
     24498     24496     24499     24501     24498     24496     24499     24502
     24499     24502     24505     24506     24499     24502     24505     24507
     24499     24502     24505     24508     24500     24499     24502     24503
     24500     24499     24502     24504     24500     24499     24502     24505
     24501     24499     24502     24503     24501     24499     24502     24504
     24501     24499     24502     24505     24503     24502     24505     24506
     24503     24502     24505     24507     24503     24502     24505     24508
     24504     24502     24505     24506     24504     24502     24505     24507
     24504     24502     24505     24508     24509     24512     24515     24516
     24509     24512     24515     24517     24509     24512     24515     24518
     24510     24509     24512     24513     24510     24509     24512     24514
     24510     24509     24512     24515     24511     24509     24512     24513
     24511     24509     24512     24514     24511     24509     24512     24515
     24512     24515     24518     24519     24512     24515     24518     24520
     24512     24515     24518     24521     24513     24512     24515     24516
     24513     24512     24515     24517     24513     24512     24515     24518
     24514     24512     24515     24516     24514     24512     24515     24517
     24514     24512     24515     24518     24515     24518     24521     24522
     24515     24518     24521     24523     24515     24518     24521     24524
     24516     24515     24518     24519     24516     24515     24518     24520
     24516     24515     24518     24521     24517     24515     24518     24519
     24517     24515     24518     24520     24517     24515     24518     24521
     24518     24521     24524     24525     24518     24521     24524     24526
     24518     24521     24524     24527     24519     24518     24521     24522
     24519     24518     24521     24523     24519     24518     24521     24524
     24520     24518     24521     24522     24520     24518     24521     24523
     24520     24518     24521     24524     24521     24524     24527     24528
     24521     24524     24527     24529     24521     24524     24527     24530
     24522     24521     24524     24525     24522     24521     24524     24526
     24522     24521     24524     24527     24523     24521     24524     24525
     24523     24521     24524     24526     24523     24521     24524     24527
     24524     24527     24530     24531     24524     24527     24530     24532
     24524     24527     24530     24533     24525     24524     24527     24528
     24525     24524     24527     24529     24525     24524     24527     24530
     24526     24524     24527     24528     24526     24524     24527     24529
     24526     24524     24527     24530     24527     24530     24533     24534
     24527     24530     24533     24535     24527     24530     24533     24536
     24528     24527     24530     24531     24528     24527     24530     24532
     24528     24527     24530     24533     24529     24527     24530     24531
     24529     24527     24530     24532     24529     24527     24530     24533
     24530     24533     24536     24537     24530     24533     24536     24538
     24530     24533     24536     24539     24531     24530     24533     24534
     24531     24530     24533     24535     24531     24530     24533     24536
     24532     24530     24533     24534     24532     24530     24533     24535
     24532     24530     24533     24536     24533     24536     24539     24540
     24533     24536     24539     24541     24533     24536     24539     24542
     24534     24533     24536     24537     24534     24533     24536     24538
     24534     24533     24536     24539     24535     24533     24536     24537
     24535     24533     24536     24538     24535     24533     24536     24539
     24536     24539     24542     24543     24536     24539     24542     24544
     24536     24539     24542     24545     24537     24536     24539     24540
     24537     24536     24539     24541     24537     24536     24539     24542
     24538     24536     24539     24540     24538     24536     24539     24541
     24538     24536     24539     24542     24539     24542     24545     24546
     24539     24542     24545     24547     24539     24542     24545     24548
     24540     24539     24542     24543     24540     24539     24542     24544
     24540     24539     24542     24545     24541     24539     24542     24543
     24541     24539     24542     24544     24541     24539     24542     24545
     24542     24545     24548     24549     24542     24545     24548     24550
     24542     24545     24548     24551     24543     24542     24545     24546
     24543     24542     24545     24547     24543     24542     24545     24548
     24544     24542     24545     24546     24544     24542     24545     24547
     24544     24542     24545     24548     24546     24545     24548     24549
     24546     24545     24548     24550     24546     24545     24548     24551
     24547     24545     24548     24549     24547     24545     24548     24550
     24547     24545     24548     24551     24552     24556     24559     24560
     24552     24556     24559     24561     24552     24556     24559     24566
     24553     24552     24556     24557     24553     24552     24556     24558
     24553     24552     24556     24559     24554     24552     24556     24557
     24554     24552     24556     24558     24554     24552     24556     24559
     24555     24552     24556     24557     24555     24552     24556     24558
     24555     24552     24556     24559     24556     24559     24566     24562
     24557     24556     24559     24560     24557     24556     24559     24561
     24557     24556     24559     24566     24558     24556     24559     24560
     24558     24556     24559     24561     24558     24556     24559     24566
     24559     24566     24562     24563     24559     24566     24562     24564
     24559     24566     24562     24565     24560     24559     24566     24562
     24561     24559     24566     24562     24562     24565     24567     24568
     24562     24565     24567     24569     24562     24565     24567     24570
     24563     24562     24565     24567     24564     24562     24565     24567
     24565     24567     24570     24571     24565     24567     24570     24572
     24565     24567     24570     24578     24566     24562     24565     24567
     24567     24570     24572     24573     24567     24570     24578     24579
     24567     24570     24578     24580     24567     24570     24578     24581
     24568     24567     24570     24571     24568     24567     24570     24572
     24568     24567     24570     24578     24569     24567     24570     24571
     24569     24567     24570     24572     24569     24567     24570     24578
     24570     24572     24573     24574     24570     24572     24573     24575
     24570     24578     24581     24582     24571     24570     24572     24573
     24571     24570     24578     24579     24571     24570     24578     24580
     24571     24570     24578     24581     24572     24570     24578     24579
     24572     24570     24578     24580     24572     24570     24578     24581
     24572     24573     24575     24576     24572     24573     24575     24577
     24572     24573     24575     24587     24573     24572     24570     24578
     24573     24575     24587     24588     24573     24575     24587     24589
     24573     24575     24587     24590     24574     24573     24575     24576
     24574     24573     24575     24577     24574     24573     24575     24587
     24575     24587     24590     24591     24575     24587     24590     24592
     24575     24587     24590     24593     24576     24575     24587     24588
     24576     24575     24587     24589     24576     24575     24587     24590
     24577     24575     24587     24588     24577     24575     24587     24589
     24577     24575     24587     24590     24578     24581     24582     24583
     24578     24581     24582     24584     24579     24578     24581     24582
     24580     24578     24581     24582     24581     24582     24584     24585
     24581     24582     24584     24586     24581     24582     24584     24631
     24582     24584     24631     24632     24582     24584     24631     24633
     24582     24584     24631     24634     24583     24582     24584     24585
     24583     24582     24584     24586     24583     24582     24584     24631
     24584     24631     24634     24635     24584     24631     24634     24636
     24584     24631     24634     24637     24585     24584     24631     24632
     24585     24584     24631     24633     24585     24584     24631     24634
     24586     24584     24631     24632     24586     24584     24631     24633
     24586     24584     24631     24634     24587     24590     24593     24594
     24587     24590     24593     24595     24587     24590     24593     24596
     24588     24587     24590     24591     24588     24587     24590     24592
     24588     24587     24590     24593     24589     24587     24590     24591
     24589     24587     24590     24592     24589     24587     24590     24593
     24590     24593     24596     24597     24590     24593     24596     24598
     24590     24593     24596     24599     24591     24590     24593     24594
     24591     24590     24593     24595     24591     24590     24593     24596
     24592     24590     24593     24594     24592     24590     24593     24595
     24592     24590     24593     24596     24593     24596     24599     24600
     24593     24596     24599     24601     24593     24596     24599     24602
     24594     24593     24596     24597     24594     24593     24596     24598
     24594     24593     24596     24599     24595     24593     24596     24597
     24595     24593     24596     24598     24595     24593     24596     24599
     24596     24599     24602     24603     24596     24599     24602     24604
     24596     24599     24602     24605     24597     24596     24599     24600
     24597     24596     24599     24601     24597     24596     24599     24602
     24598     24596     24599     24600     24598     24596     24599     24601
     24598     24596     24599     24602     24599     24602     24605     24606
     24599     24602     24605     24607     24599     24602     24605     24610
     24600     24599     24602     24603     24600     24599     24602     24604
     24600     24599     24602     24605     24601     24599     24602     24603
     24601     24599     24602     24604     24601     24599     24602     24605
     24602     24605     24607     24608     24602     24605     24607     24609
     24602     24605     24607     24610     24602     24605     24610     24607
     24602     24605     24610     24611     24602     24605     24610     24612
     24603     24602     24605     24606     24603     24602     24605     24607
     24603     24602     24605     24610     24604     24602     24605     24606
     24604     24602     24605     24607     24604     24602     24605     24610
     24605     24607     24610     24611     24605     24607     24610     24612
     24605     24610     24607     24608     24605     24610     24607     24609
     24605     24610     24612     24613     24605     24610     24612     24614
     24605     24610     24612     24615     24606     24605     24607     24608
     24606     24605     24607     24609     24606     24605     24607     24610
     24606     24605     24610     24607     24606     24605     24610     24611
     24606     24605     24610     24612     24607     24605     24610     24611
     24607     24605     24610     24612     24607     24610     24612     24613
     24607     24610     24612     24614     24607     24610     24612     24615
     24608     24607     24605     24610     24608     24607     24610     24611
     24608     24607     24610     24612     24609     24607     24605     24610
     24609     24607     24610     24611     24609     24607     24610     24612
     24610     24612     24615     24616     24610     24612     24615     24617
     24610     24612     24615     24618     24611     24610     24612     24613
     24611     24610     24612     24614     24611     24610     24612     24615
     24612     24615     24618     24619     24612     24615     24618     24620
     24612     24615     24618     24621     24613     24612     24615     24616
     24613     24612     24615     24617     24613     24612     24615     24618
     24614     24612     24615     24616     24614     24612     24615     24617
     24614     24612     24615     24618     24615     24618     24621     24622
     24615     24618     24621     24623     24615     24618     24621     24624
     24616     24615     24618     24619     24616     24615     24618     24620
     24616     24615     24618     24621     24617     24615     24618     24619
     24617     24615     24618     24620     24617     24615     24618     24621
     24618     24621     24624     24625     24618     24621     24624     24626
     24618     24621     24624     24627     24619     24618     24621     24622
     24619     24618     24621     24623     24619     24618     24621     24624
     24620     24618     24621     24622     24620     24618     24621     24623
     24620     24618     24621     24624     24621     24624     24627     24628
     24621     24624     24627     24629     24621     24624     24627     24630
     24622     24621     24624     24625     24622     24621     24624     24626
     24622     24621     24624     24627     24623     24621     24624     24625
     24623     24621     24624     24626     24623     24621     24624     24627
     24625     24624     24627     24628     24625     24624     24627     24629
     24625     24624     24627     24630     24626     24624     24627     24628
     24626     24624     24627     24629     24626     24624     24627     24630
     24631     24634     24637     24638     24631     24634     24637     24639
     24631     24634     24637     24640     24632     24631     24634     24635
     24632     24631     24634     24636     24632     24631     24634     24637
     24633     24631     24634     24635     24633     24631     24634     24636
     24633     24631     24634     24637     24634     24637     24640     24641
     24634     24637     24640     24642     24634     24637     24640     24643
     24635     24634     24637     24638     24635     24634     24637     24639
     24635     24634     24637     24640     24636     24634     24637     24638
     24636     24634     24637     24639     24636     24634     24637     24640
     24637     24640     24643     24644     24637     24640     24643     24645
     24637     24640     24643     24646     24638     24637     24640     24641
     24638     24637     24640     24642     24638     24637     24640     24643
     24639     24637     24640     24641     24639     24637     24640     24642
     24639     24637     24640     24643     24640     24643     24646     24647
     24640     24643     24646     24648     24640     24643     24646     24649
     24641     24640     24643     24644     24641     24640     24643     24645
     24641     24640     24643     24646     24642     24640     24643     24644
     24642     24640     24643     24645     24642     24640     24643     24646
     24643     24646     24649     24650     24643     24646     24649     24651
     24643     24646     24649     24652     24644     24643     24646     24647
     24644     24643     24646     24648     24644     24643     24646     24649
     24645     24643     24646     24647     24645     24643     24646     24648
     24645     24643     24646     24649     24646     24649     24652     24653
     24646     24649     24652     24654     24646     24649     24652     24655
     24647     24646     24649     24650     24647     24646     24649     24651
     24647     24646     24649     24652     24648     24646     24649     24650
     24648     24646     24649     24651     24648     24646     24649     24652
     24649     24652     24655     24656     24649     24652     24655     24657
     24649     24652     24655     24658     24650     24649     24652     24653
     24650     24649     24652     24654     24650     24649     24652     24655
     24651     24649     24652     24653     24651     24649     24652     24654
     24651     24649     24652     24655     24652     24655     24658     24659
     24652     24655     24658     24660     24652     24655     24658     24661
     24653     24652     24655     24656     24653     24652     24655     24657
     24653     24652     24655     24658     24654     24652     24655     24656
     24654     24652     24655     24657     24654     24652     24655     24658
     24655     24658     24661     24662     24655     24658     24661     24663
     24655     24658     24661     24664     24656     24655     24658     24659
     24656     24655     24658     24660     24656     24655     24658     24661
     24657     24655     24658     24659     24657     24655     24658     24660
     24657     24655     24658     24661     24658     24661     24664     24665
     24658     24661     24664     24666     24658     24661     24664     24667
     24659     24658     24661     24662     24659     24658     24661     24663
     24659     24658     24661     24664     24660     24658     24661     24662
     24660     24658     24661     24663     24660     24658     24661     24664
     24661     24664     24667     24668     24661     24664     24667     24669
     24661     24664     24667     24670     24662     24661     24664     24665
     24662     24661     24664     24666     24662     24661     24664     24667
     24663     24661     24664     24665     24663     24661     24664     24666
     24663     24661     24664     24667     24664     24667     24670     24671
     24664     24667     24670     24672     24664     24667     24670     24673
     24665     24664     24667     24668     24665     24664     24667     24669
     24665     24664     24667     24670     24666     24664     24667     24668
     24666     24664     24667     24669     24666     24664     24667     24670
     24668     24667     24670     24671     24668     24667     24670     24672
     24668     24667     24670     24673     24669     24667     24670     24671
     24669     24667     24670     24672     24669     24667     24670     24673
     24674     24678     24681     24682     24674     24678     24681     24683
     24674     24678     24681     24688     24675     24674     24678     24679
     24675     24674     24678     24680     24675     24674     24678     24681
     24676     24674     24678     24679     24676     24674     24678     24680
     24676     24674     24678     24681     24677     24674     24678     24679
     24677     24674     24678     24680     24677     24674     24678     24681
     24678     24681     24688     24684     24679     24678     24681     24682
     24679     24678     24681     24683     24679     24678     24681     24688
     24680     24678     24681     24682     24680     24678     24681     24683
     24680     24678     24681     24688     24681     24688     24684     24685
     24681     24688     24684     24686     24681     24688     24684     24687
     24682     24681     24688     24684     24683     24681     24688     24684
     24684     24687     24689     24690     24684     24687     24689     24691
     24684     24687     24689     24692     24685     24684     24687     24689
     24686     24684     24687     24689     24687     24689     24692     24693
     24687     24689     24692     24694     24687     24689     24692     24700
     24688     24684     24687     24689     24689     24692     24694     24695
     24689     24692     24700     24701     24689     24692     24700     24702
     24689     24692     24700     24703     24690     24689     24692     24693
     24690     24689     24692     24694     24690     24689     24692     24700
     24691     24689     24692     24693     24691     24689     24692     24694
     24691     24689     24692     24700     24692     24694     24695     24696
     24692     24694     24695     24697     24692     24700     24703     24704
     24693     24692     24694     24695     24693     24692     24700     24701
     24693     24692     24700     24702     24693     24692     24700     24703
     24694     24692     24700     24701     24694     24692     24700     24702
     24694     24692     24700     24703     24694     24695     24697     24698
     24694     24695     24697     24699     24694     24695     24697     24709
     24695     24694     24692     24700     24695     24697     24709     24710
     24695     24697     24709     24711     24695     24697     24709     24712
     24696     24695     24697     24698     24696     24695     24697     24699
     24696     24695     24697     24709     24697     24709     24712     24713
     24697     24709     24712     24714     24697     24709     24712     24715
     24698     24697     24709     24710     24698     24697     24709     24711
     24698     24697     24709     24712     24699     24697     24709     24710
     24699     24697     24709     24711     24699     24697     24709     24712
     24700     24703     24704     24705     24700     24703     24704     24706
     24701     24700     24703     24704     24702     24700     24703     24704
     24703     24704     24706     24707     24703     24704     24706     24708
     24703     24704     24706     24753     24704     24706     24753     24754
     24704     24706     24753     24755     24704     24706     24753     24756
     24705     24704     24706     24707     24705     24704     24706     24708
     24705     24704     24706     24753     24706     24753     24756     24757
     24706     24753     24756     24758     24706     24753     24756     24759
     24707     24706     24753     24754     24707     24706     24753     24755
     24707     24706     24753     24756     24708     24706     24753     24754
     24708     24706     24753     24755     24708     24706     24753     24756
     24709     24712     24715     24716     24709     24712     24715     24717
     24709     24712     24715     24718     24710     24709     24712     24713
     24710     24709     24712     24714     24710     24709     24712     24715
     24711     24709     24712     24713     24711     24709     24712     24714
     24711     24709     24712     24715     24712     24715     24718     24719
     24712     24715     24718     24720     24712     24715     24718     24721
     24713     24712     24715     24716     24713     24712     24715     24717
     24713     24712     24715     24718     24714     24712     24715     24716
     24714     24712     24715     24717     24714     24712     24715     24718
     24715     24718     24721     24722     24715     24718     24721     24723
     24715     24718     24721     24724     24716     24715     24718     24719
     24716     24715     24718     24720     24716     24715     24718     24721
     24717     24715     24718     24719     24717     24715     24718     24720
     24717     24715     24718     24721     24718     24721     24724     24725
     24718     24721     24724     24726     24718     24721     24724     24727
     24719     24718     24721     24722     24719     24718     24721     24723
     24719     24718     24721     24724     24720     24718     24721     24722
     24720     24718     24721     24723     24720     24718     24721     24724
     24721     24724     24727     24728     24721     24724     24727     24729
     24721     24724     24727     24732     24722     24721     24724     24725
     24722     24721     24724     24726     24722     24721     24724     24727
     24723     24721     24724     24725     24723     24721     24724     24726
     24723     24721     24724     24727     24724     24727     24729     24730
     24724     24727     24729     24731     24724     24727     24729     24732
     24724     24727     24732     24729     24724     24727     24732     24733
     24724     24727     24732     24734     24725     24724     24727     24728
     24725     24724     24727     24729     24725     24724     24727     24732
     24726     24724     24727     24728     24726     24724     24727     24729
     24726     24724     24727     24732     24727     24729     24732     24733
     24727     24729     24732     24734     24727     24732     24729     24730
     24727     24732     24729     24731     24727     24732     24734     24735
     24727     24732     24734     24736     24727     24732     24734     24737
     24728     24727     24729     24730     24728     24727     24729     24731
     24728     24727     24729     24732     24728     24727     24732     24729
     24728     24727     24732     24733     24728     24727     24732     24734
     24729     24727     24732     24733     24729     24727     24732     24734
     24729     24732     24734     24735     24729     24732     24734     24736
     24729     24732     24734     24737     24730     24729     24727     24732
     24730     24729     24732     24733     24730     24729     24732     24734
     24731     24729     24727     24732     24731     24729     24732     24733
     24731     24729     24732     24734     24732     24734     24737     24738
     24732     24734     24737     24739     24732     24734     24737     24740
     24733     24732     24734     24735     24733     24732     24734     24736
     24733     24732     24734     24737     24734     24737     24740     24741
     24734     24737     24740     24742     24734     24737     24740     24743
     24735     24734     24737     24738     24735     24734     24737     24739
     24735     24734     24737     24740     24736     24734     24737     24738
     24736     24734     24737     24739     24736     24734     24737     24740
     24737     24740     24743     24744     24737     24740     24743     24745
     24737     24740     24743     24746     24738     24737     24740     24741
     24738     24737     24740     24742     24738     24737     24740     24743
     24739     24737     24740     24741     24739     24737     24740     24742
     24739     24737     24740     24743     24740     24743     24746     24747
     24740     24743     24746     24748     24740     24743     24746     24749
     24741     24740     24743     24744     24741     24740     24743     24745
     24741     24740     24743     24746     24742     24740     24743     24744
     24742     24740     24743     24745     24742     24740     24743     24746
     24743     24746     24749     24750     24743     24746     24749     24751
     24743     24746     24749     24752     24744     24743     24746     24747
     24744     24743     24746     24748     24744     24743     24746     24749
     24745     24743     24746     24747     24745     24743     24746     24748
     24745     24743     24746     24749     24747     24746     24749     24750
     24747     24746     24749     24751     24747     24746     24749     24752
     24748     24746     24749     24750     24748     24746     24749     24751
     24748     24746     24749     24752     24753     24756     24759     24760
     24753     24756     24759     24761     24753     24756     24759     24762
     24754     24753     24756     24757     24754     24753     24756     24758
     24754     24753     24756     24759     24755     24753     24756     24757
     24755     24753     24756     24758     24755     24753     24756     24759
     24756     24759     24762     24763     24756     24759     24762     24764
     24756     24759     24762     24765     24757     24756     24759     24760
     24757     24756     24759     24761     24757     24756     24759     24762
     24758     24756     24759     24760     24758     24756     24759     24761
     24758     24756     24759     24762     24759     24762     24765     24766
     24759     24762     24765     24767     24759     24762     24765     24768
     24760     24759     24762     24763     24760     24759     24762     24764
     24760     24759     24762     24765     24761     24759     24762     24763
     24761     24759     24762     24764     24761     24759     24762     24765
     24762     24765     24768     24769     24762     24765     24768     24770
     24762     24765     24768     24771     24763     24762     24765     24766
     24763     24762     24765     24767     24763     24762     24765     24768
     24764     24762     24765     24766     24764     24762     24765     24767
     24764     24762     24765     24768     24765     24768     24771     24772
     24765     24768     24771     24773     24765     24768     24771     24774
     24766     24765     24768     24769     24766     24765     24768     24770
     24766     24765     24768     24771     24767     24765     24768     24769
     24767     24765     24768     24770     24767     24765     24768     24771
     24768     24771     24774     24775     24768     24771     24774     24776
     24768     24771     24774     24777     24769     24768     24771     24772
     24769     24768     24771     24773     24769     24768     24771     24774
     24770     24768     24771     24772     24770     24768     24771     24773
     24770     24768     24771     24774     24771     24774     24777     24778
     24771     24774     24777     24779     24771     24774     24777     24780
     24772     24771     24774     24775     24772     24771     24774     24776
     24772     24771     24774     24777     24773     24771     24774     24775
     24773     24771     24774     24776     24773     24771     24774     24777
     24774     24777     24780     24781     24774     24777     24780     24782
     24774     24777     24780     24783     24775     24774     24777     24778
     24775     24774     24777     24779     24775     24774     24777     24780
     24776     24774     24777     24778     24776     24774     24777     24779
     24776     24774     24777     24780     24777     24780     24783     24784
     24777     24780     24783     24785     24777     24780     24783     24786
     24778     24777     24780     24781     24778     24777     24780     24782
     24778     24777     24780     24783     24779     24777     24780     24781
     24779     24777     24780     24782     24779     24777     24780     24783
     24780     24783     24786     24787     24780     24783     24786     24788
     24780     24783     24786     24789     24781     24780     24783     24784
     24781     24780     24783     24785     24781     24780     24783     24786
     24782     24780     24783     24784     24782     24780     24783     24785
     24782     24780     24783     24786     24783     24786     24789     24790
     24783     24786     24789     24791     24783     24786     24789     24792
     24784     24783     24786     24787     24784     24783     24786     24788
     24784     24783     24786     24789     24785     24783     24786     24787
     24785     24783     24786     24788     24785     24783     24786     24789
     24786     24789     24792     24793     24786     24789     24792     24794
     24786     24789     24792     24795     24787     24786     24789     24790
     24787     24786     24789     24791     24787     24786     24789     24792
     24788     24786     24789     24790     24788     24786     24789     24791
     24788     24786     24789     24792     24790     24789     24792     24793
     24790     24789     24792     24794     24790     24789     24792     24795
     24791     24789     24792     24793     24791     24789     24792     24794
     24791     24789     24792     24795     24796     24801     24803     24804
     24796     24801     24805     24806     24796     24801     24805     24807
     24796     24801     24805     24812     24797     24796     24799     24800
     24797     24796     24801     24802     24797     24796     24801     24803
     24797     24796     24801     24805     24798     24796     24799     24800
     24798     24796     24801     24802     24798     24796     24801     24803
     24798     24796     24801     24805     24799     24796     24801     24802
     24799     24796     24801     24803     24799     24796     24801     24805
     24800     24799     24796     24801     24801     24805     24812     24808
     24802     24801     24803     24804     24802     24801     24805     24806
     24802     24801     24805     24807     24802     24801     24805     24812
     24803     24801     24805     24806     24803     24801     24805     24807
     24803     24801     24805     24812     24804     24803     24801     24805
     24805     24812     24808     24809     24805     24812     24808     24810
     24805     24812     24808     24811     24806     24805     24812     24808
     24807     24805     24812     24808     24808     24811     24813     24814
     24808     24811     24813     24815     24808     24811     24813     24816
     24809     24808     24811     24813     24810     24808     24811     24813
     24811     24813     24816     24817     24811     24813     24816     24818
     24811     24813     24816     24824     24812     24808     24811     24813
     24813     24816     24818     24819     24813     24816     24824     24825
     24813     24816     24824     24826     24813     24816     24824     24827
     24814     24813     24816     24817     24814     24813     24816     24818
     24814     24813     24816     24824     24815     24813     24816     24817
     24815     24813     24816     24818     24815     24813     24816     24824
     24816     24818     24819     24820     24816     24818     24819     24821
     24816     24824     24827     24828     24817     24816     24818     24819
     24817     24816     24824     24825     24817     24816     24824     24826
     24817     24816     24824     24827     24818     24816     24824     24825
     24818     24816     24824     24826     24818     24816     24824     24827
     24818     24819     24821     24822     24818     24819     24821     24823
     24818     24819     24821     24833     24819     24818     24816     24824
     24819     24821     24833     24834     24819     24821     24833     24835
     24819     24821     24833     24836     24820     24819     24821     24822
     24820     24819     24821     24823     24820     24819     24821     24833
     24821     24833     24836     24837     24821     24833     24836     24838
     24821     24833     24836     24839     24822     24821     24833     24834
     24822     24821     24833     24835     24822     24821     24833     24836
     24823     24821     24833     24834     24823     24821     24833     24835
     24823     24821     24833     24836     24824     24827     24828     24829
     24824     24827     24828     24830     24825     24824     24827     24828
     24826     24824     24827     24828     24827     24828     24830     24831
     24827     24828     24830     24832     24827     24828     24830     24874
     24828     24830     24874     24875     24828     24830     24874     24876
     24828     24830     24874     24877     24829     24828     24830     24831
     24829     24828     24830     24832     24829     24828     24830     24874
     24830     24874     24877     24878     24830     24874     24877     24879
     24830     24874     24877     24880     24831     24830     24874     24875
     24831     24830     24874     24876     24831     24830     24874     24877
     24832     24830     24874     24875     24832     24830     24874     24876
     24832     24830     24874     24877     24833     24836     24839     24840
     24833     24836     24839     24841     24833     24836     24839     24842
     24834     24833     24836     24837     24834     24833     24836     24838
     24834     24833     24836     24839     24835     24833     24836     24837
     24835     24833     24836     24838     24835     24833     24836     24839
     24836     24839     24842     24843     24836     24839     24842     24844
     24836     24839     24842     24845     24837     24836     24839     24840
     24837     24836     24839     24841     24837     24836     24839     24842
     24838     24836     24839     24840     24838     24836     24839     24841
     24838     24836     24839     24842     24839     24842     24845     24846
     24839     24842     24845     24847     24839     24842     24845     24848
     24840     24839     24842     24843     24840     24839     24842     24844
     24840     24839     24842     24845     24841     24839     24842     24843
     24841     24839     24842     24844     24841     24839     24842     24845
     24842     24845     24848     24849     24842     24845     24848     24850
     24842     24845     24848     24851     24843     24842     24845     24846
     24843     24842     24845     24847     24843     24842     24845     24848
     24844     24842     24845     24846     24844     24842     24845     24847
     24844     24842     24845     24848     24845     24848     24851     24852
     24845     24848     24851     24853     24846     24845     24848     24849
     24846     24845     24848     24850     24846     24845     24848     24851
     24847     24845     24848     24849     24847     24845     24848     24850
     24847     24845     24848     24851     24848     24851     24853     24854
     24848     24851     24853     24855     24849     24848     24851     24852
     24849     24848     24851     24853     24850     24848     24851     24852
     24850     24848     24851     24853     24851     24853     24855     24856
     24851     24853     24855     24857     24851     24853     24855     24858
     24852     24851     24853     24854     24852     24851     24853     24855
     24853     24855     24858     24859     24853     24855     24858     24860
     24853     24855     24858     24861     24854     24853     24855     24856
     24854     24853     24855     24857     24854     24853     24855     24858
     24855     24858     24861     24862     24855     24858     24861     24863
     24855     24858     24861     24864     24856     24855     24858     24859
     24856     24855     24858     24860     24856     24855     24858     24861
     24857     24855     24858     24859     24857     24855     24858     24860
     24857     24855     24858     24861     24858     24861     24864     24865
     24858     24861     24864     24866     24858     24861     24864     24867
     24859     24858     24861     24862     24859     24858     24861     24863
     24859     24858     24861     24864     24860     24858     24861     24862
     24860     24858     24861     24863     24860     24858     24861     24864
     24861     24864     24867     24868     24861     24864     24867     24869
     24861     24864     24867     24870     24862     24861     24864     24865
     24862     24861     24864     24866     24862     24861     24864     24867
     24863     24861     24864     24865     24863     24861     24864     24866
     24863     24861     24864     24867     24864     24867     24870     24871
     24864     24867     24870     24872     24864     24867     24870     24873
     24865     24864     24867     24868     24865     24864     24867     24869
     24865     24864     24867     24870     24866     24864     24867     24868
     24866     24864     24867     24869     24866     24864     24867     24870
     24868     24867     24870     24871     24868     24867     24870     24872
     24868     24867     24870     24873     24869     24867     24870     24871
     24869     24867     24870     24872     24869     24867     24870     24873
     24874     24877     24880     24881     24874     24877     24880     24882
     24874     24877     24880     24883     24875     24874     24877     24878
     24875     24874     24877     24879     24875     24874     24877     24880
     24876     24874     24877     24878     24876     24874     24877     24879
     24876     24874     24877     24880     24877     24880     24883     24884
     24877     24880     24883     24885     24877     24880     24883     24886
     24878     24877     24880     24881     24878     24877     24880     24882
     24878     24877     24880     24883     24879     24877     24880     24881
     24879     24877     24880     24882     24879     24877     24880     24883
     24880     24883     24886     24887     24880     24883     24886     24888
     24880     24883     24886     24889     24881     24880     24883     24884
     24881     24880     24883     24885     24881     24880     24883     24886
     24882     24880     24883     24884     24882     24880     24883     24885
     24882     24880     24883     24886     24883     24886     24889     24890
     24883     24886     24889     24891     24883     24886     24889     24892
     24884     24883     24886     24887     24884     24883     24886     24888
     24884     24883     24886     24889     24885     24883     24886     24887
     24885     24883     24886     24888     24885     24883     24886     24889
     24886     24889     24892     24893     24886     24889     24892     24894
     24886     24889     24892     24895     24887     24886     24889     24890
     24887     24886     24889     24891     24887     24886     24889     24892
     24888     24886     24889     24890     24888     24886     24889     24891
     24888     24886     24889     24892     24889     24892     24895     24896
     24889     24892     24895     24897     24889     24892     24895     24898
     24890     24889     24892     24893     24890     24889     24892     24894
     24890     24889     24892     24895     24891     24889     24892     24893
     24891     24889     24892     24894     24891     24889     24892     24895
     24892     24895     24898     24899     24892     24895     24898     24900
     24892     24895     24898     24901     24893     24892     24895     24896
     24893     24892     24895     24897     24893     24892     24895     24898
     24894     24892     24895     24896     24894     24892     24895     24897
     24894     24892     24895     24898     24895     24898     24901     24902
     24895     24898     24901     24903     24895     24898     24901     24904
     24896     24895     24898     24899     24896     24895     24898     24900
     24896     24895     24898     24901     24897     24895     24898     24899
     24897     24895     24898     24900     24897     24895     24898     24901
     24898     24901     24904     24905     24898     24901     24904     24906
     24898     24901     24904     24907     24899     24898     24901     24902
     24899     24898     24901     24903     24899     24898     24901     24904
     24900     24898     24901     24902     24900     24898     24901     24903
     24900     24898     24901     24904     24901     24904     24907     24908
     24901     24904     24907     24909     24901     24904     24907     24910
     24902     24901     24904     24905     24902     24901     24904     24906
     24902     24901     24904     24907     24903     24901     24904     24905
     24903     24901     24904     24906     24903     24901     24904     24907
     24904     24907     24910     24911     24904     24907     24910     24912
     24904     24907     24910     24913     24905     24904     24907     24908
     24905     24904     24907     24909     24905     24904     24907     24910
     24906     24904     24907     24908     24906     24904     24907     24909
     24906     24904     24907     24910     24907     24910     24913     24914
     24907     24910     24913     24915     24907     24910     24913     24916
     24908     24907     24910     24911     24908     24907     24910     24912
     24908     24907     24910     24913     24909     24907     24910     24911
     24909     24907     24910     24912     24909     24907     24910     24913
     24911     24910     24913     24914     24911     24910     24913     24915
     24911     24910     24913     24916     24912     24910     24913     24914
     24912     24910     24913     24915     24912     24910     24913     24916

       408 !NIMPHI: impropers
        22        21        24        23        31        30        33        32
       141       140       143       142       150       149       152       151
       265       264       267       266       274       273       276       275
       386       385       388       387       395       394       397       396
       508       507       510       509       517       516       519       518
       627       626       629       628       636       635       638       637
       751       750       753       752       760       759       762       761
       875       874       877       876       884       883       886       885
       994       993       996       995      1003      1002      1005      1004
      1116      1115      1118      1117      1125      1124      1127      1126
      1241      1240      1243      1242      1250      1249      1252      1251
      1363      1362      1365      1364      1372      1371      1374      1373
      1485      1484      1487      1486      1494      1493      1496      1495
      1610      1609      1612      1611      1619      1618      1621      1620
      1732      1731      1734      1733      1741      1740      1743      1742
      1857      1856      1859      1858      1866      1865      1868      1867
      1976      1975      1978      1977      1985      1984      1987      1986
      2098      2097      2100      2099      2107      2106      2109      2108
      2217      2216      2219      2218      2226      2225      2228      2227
      2340      2339      2342      2341      2349      2348      2351      2350
      2465      2464      2467      2466      2474      2473      2476      2475
      2588      2587      2590      2589      2597      2596      2599      2598
      2712      2711      2714      2713      2721      2720      2723      2722
      2831      2830      2833      2832      2840      2839      2842      2841
      2953      2952      2955      2954      2962      2961      2964      2963
      3075      3074      3077      3076      3084      3083      3086      3085
      3197      3196      3199      3198      3206      3205      3208      3207
      3319      3318      3321      3320      3328      3327      3330      3329
      3443      3442      3445      3444      3452      3451      3454      3453
      3565      3564      3567      3566      3574      3573      3576      3575
      3689      3688      3691      3690      3698      3697      3700      3699
      3808      3807      3810      3809      3817      3816      3819      3818
      3931      3930      3933      3932      3940      3939      3942      3941
      4056      4055      4058      4057      4065      4064      4067      4066
      4178      4177      4180      4179      4187      4186      4189      4188
      4300      4299      4302      4301      4309      4308      4311      4310
      4425      4424      4427      4426      4434      4433      4436      4435
      4548      4547      4550      4549      4557      4556      4559      4558
      4670      4669      4672      4671      4679      4678      4681      4680
      4794      4793      4796      4795      4803      4802      4805      4804
      4916      4915      4918      4917      4925      4924      4927      4926
      5035      5034      5037      5036      5044      5043      5046      5045
      5157      5156      5159      5158      5166      5165      5168      5167
      5276      5275      5278      5277      5285      5284      5287      5286
      5398      5397      5400      5399      5407      5406      5409      5408
      5520      5519      5522      5521      5529      5528      5531      5530
      5644      5643      5646      5645      5653      5652      5655      5654
      5768      5767      5770      5769      5777      5776      5779      5778
      5889      5888      5891      5890      5898      5897      5900      5899
      6011      6010      6013      6012      6020      6019      6022      6021
      6133      6132      6135      6134      6142      6141      6144      6143
      6255      6254      6257      6256      6264      6263      6266      6265
      6377      6376      6379      6378      6386      6385      6388      6387
      6501      6500      6503      6502      6510      6509      6512      6511
      6625      6624      6627      6626      6634      6633      6636      6635
      6747      6746      6749      6748      6756      6755      6758      6757
      6866      6865      6868      6867      6875      6874      6877      6876
      6988      6987      6990      6989      6997      6996      6999      6998
      7110      7109      7112      7111      7119      7118      7121      7120
      7232      7231      7234      7233      7241      7240      7243      7242
      7354      7353      7356      7355      7363      7362      7365      7364
      7478      7477      7480      7479      7487      7486      7489      7488
      7600      7599      7602      7601      7609      7608      7611      7610
      7742      7741      7744      7743      7733      7732      7735      7734
      7759      7758      7761      7760      7750      7749      7752      7751
      7965      7964      7967      7966      7974      7973      7976      7975
      8090      8089      8092      8091      8099      8098      8101      8100
      8213      8212      8215      8214      8222      8221      8224      8223
      8337      8336      8339      8338      8346      8345      8348      8347
      8456      8455      8458      8457      8465      8464      8467      8466
      8578      8577      8580      8579      8587      8586      8589      8588
      8700      8699      8702      8701      8709      8708      8711      8710
      8822      8821      8824      8823      8831      8830      8833      8832
      8944      8943      8946      8945      8953      8952      8955      8954
      9068      9067      9070      9069      9077      9076      9079      9078
      9187      9186      9189      9188      9196      9195      9198      9197
      9312      9311      9314      9313      9321      9320      9323      9322
      9431      9430      9433      9432      9440      9439      9442      9441
      9553      9552      9555      9554      9562      9561      9564      9563
      9678      9677      9680      9679      9687      9686      9689      9688
      9797      9796      9799      9798      9806      9805      9808      9807
      9919      9918      9921      9920      9928      9927      9930      9929
     10038     10037     10040     10039     10047     10046     10049     10048
     10160     10159     10162     10161     10169     10168     10171     10170
     10279     10278     10281     10280     10288     10287     10290     10289
     10404     10403     10406     10405     10413     10412     10415     10414
     10529     10528     10531     10530     10538     10537     10540     10539
     10648     10647     10650     10649     10657     10656     10659     10658
     10770     10769     10772     10771     10779     10778     10781     10780
     10892     10891     10894     10893     10901     10900     10903     10902
     11031     11030     11033     11032     11022     11021     11024     11023
     11048     11047     11050     11049     11039     11038     11041     11040
     11254     11253     11256     11255     11263     11262     11265     11264
     11376     11375     11378     11377     11385     11384     11387     11386
     11498     11497     11500     11499     11507     11506     11509     11508
     11620     11619     11622     11621     11629     11628     11631     11630
     11745     11744     11747     11746     11754     11753     11756     11755
     11867     11866     11869     11868     11876     11875     11878     11877
     11990     11989     11992     11991     11999     11998     12001     12000
     12111     12110     12113     12112     12120     12119     12122     12121
     12230     12229     12232     12231     12239     12238     12241     12240
     12355     12354     12357     12356     12364     12363     12366     12365
     12482     12481     12484     12483     12491     12490     12493     12492
     12604     12603     12606     12605     12613     12612     12615     12614
     12729     12728     12731     12730     12738     12737     12740     12739
     12851     12850     12853     12852     12860     12859     12862     12861
     12973     12972     12975     12974     12982     12981     12984     12983
     13092     13091     13094     13093     13101     13100     13103     13102
     13211     13210     13213     13212     13220     13219     13222     13221
     13333     13332     13335     13334     13342     13341     13344     13343
     13455     13454     13457     13456     13464     13463     13466     13465
     13577     13576     13579     13578     13586     13585     13588     13587
     13699     13698     13701     13700     13708     13707     13710     13709
     13821     13820     13823     13822     13830     13829     13832     13831
     13942     13941     13944     13943     13951     13950     13953     13952
     14064     14063     14066     14065     14073     14072     14075     14074
     14189     14188     14191     14190     14198     14197     14200     14199
     14311     14310     14313     14312     14320     14319     14322     14321
     14438     14437     14440     14439     14447     14446     14449     14448
     14560     14559     14562     14561     14569     14568     14571     14570
     14682     14681     14684     14683     14691     14690     14693     14692
     14804     14803     14806     14805     14813     14812     14815     14814
     14926     14925     14928     14927     14935     14934     14937     14936
     15066     15065     15068     15067     15057     15056     15059     15058
     15083     15082     15085     15084     15074     15073     15076     15075
     15289     15288     15291     15290     15298     15297     15300     15299
     15411     15410     15413     15412     15420     15419     15422     15421
     15534     15533     15536     15535     15543     15542     15545     15544
     15656     15655     15658     15657     15665     15664     15667     15666
     15778     15777     15780     15779     15787     15786     15789     15788
     15899     15898     15901     15900     15908     15907     15910     15909
     16020     16019     16022     16021     16029     16028     16031     16030
     16139     16138     16141     16140     16148     16147     16150     16149
     16261     16260     16263     16262     16270     16269     16272     16271
     16380     16379     16382     16381     16389     16388     16391     16390
     16502     16501     16504     16503     16511     16510     16513     16512
     16621     16620     16623     16622     16630     16629     16632     16631
     16744     16743     16746     16745     16753     16752     16755     16754
     16869     16868     16871     16870     16878     16877     16880     16879
     16992     16991     16994     16993     17001     17000     17003     17002
     17114     17113     17116     17115     17123     17122     17125     17124
     17239     17238     17241     17240     17248     17247     17250     17249
     17363     17362     17365     17364     17372     17371     17374     17373
     17485     17484     17487     17486     17494     17493     17496     17495
     17609     17608     17611     17610     17618     17617     17620     17619
     17731     17730     17733     17732     17740     17739     17742     17741
     17853     17852     17855     17854     17862     17861     17864     17863
     17972     17971     17974     17973     17981     17980     17983     17982
     18091     18090     18093     18092     18100     18099     18102     18101
     18213     18212     18215     18214     18222     18221     18224     18223
     18335     18334     18337     18336     18344     18343     18346     18345
     18459     18458     18461     18460     18468     18467     18470     18469
     18578     18577     18580     18579     18587     18586     18589     18588
     18703     18702     18705     18704     18712     18711     18714     18713
     18825     18824     18827     18826     18834     18833     18836     18835
     18944     18943     18946     18945     18953     18952     18955     18954
     19066     19065     19068     19067     19075     19074     19077     19076
     19190     19189     19192     19191     19199     19198     19201     19200
     19309     19308     19311     19310     19318     19317     19320     19319
     19431     19430     19433     19432     19440     19439     19442     19441
     19553     19552     19555     19554     19562     19561     19564     19563
     19677     19676     19679     19678     19686     19685     19688     19687
     19799     19798     19801     19800     19808     19807     19810     19809
     19922     19921     19924     19923     19931     19930     19933     19932
     20044     20043     20046     20045     20053     20052     20055     20054
     20165     20164     20167     20166     20174     20173     20176     20175
     20286     20285     20288     20287     20295     20294     20297     20296
     20408     20407     20410     20409     20417     20416     20419     20418
     20531     20530     20533     20532     20540     20539     20542     20541
     20653     20652     20655     20654     20662     20661     20664     20663
     20775     20774     20777     20776     20784     20783     20786     20785
     20897     20896     20899     20898     20906     20905     20908     20907
     21022     21021     21024     21023     21031     21030     21033     21032
     21149     21148     21151     21150     21158     21157     21160     21159
     21268     21267     21270     21269     21277     21276     21279     21278
     21390     21389     21392     21391     21399     21398     21401     21400
     21512     21511     21514     21513     21521     21520     21523     21522
     21637     21636     21639     21638     21646     21645     21648     21647
     21762     21761     21764     21763     21771     21770     21773     21772
     21884     21883     21886     21885     21893     21892     21895     21894
     22009     22008     22011     22010     22018     22017     22020     22019
     22131     22130     22133     22132     22140     22139     22142     22141
     22253     22252     22255     22254     22262     22261     22264     22263
     22377     22376     22379     22378     22386     22385     22388     22387
     22496     22495     22498     22497     22505     22504     22507     22506
     22619     22618     22621     22620     22628     22627     22630     22629
     22741     22740     22743     22742     22750     22749     22752     22751
     22862     22861     22864     22863     22871     22870     22873     22872
     22984     22983     22986     22985     22993     22992     22995     22994
     23106     23105     23108     23107     23115     23114     23117     23116
     23231     23230     23233     23232     23240     23239     23242     23241
     23353     23352     23355     23354     23362     23361     23364     23363
     23475     23474     23477     23476     23484     23483     23486     23485
     23597     23596     23599     23598     23606     23605     23608     23607
     23724     23723     23726     23725     23733     23732     23735     23734
     23843     23842     23845     23844     23852     23851     23854     23853
     23962     23961     23964     23963     23971     23970     23973     23972
     24084     24083     24086     24085     24093     24092     24095     24094
     24226     24225     24228     24227     24217     24216     24219     24218
     24243     24242     24245     24244     24234     24233     24236     24235
     24451     24450     24453     24452     24460     24459     24462     24461
     24573     24572     24575     24574     24582     24581     24584     24583
     24695     24694     24697     24696     24704     24703     24706     24705
     24819     24818     24821     24820     24828     24827     24830     24829

         0 !NDON: donors


         0 !NACC: acceptors


         0 !NNB

         0         0         0         0         0         0         0         0
         0         0         0         0         0         0         0         0
         0         0         0         0         0         0         0         0
         0         0         0         0         0         0         0         0
         0         0         0         0         0         0         0         0
         0         0         0         0         0         0         0         0
         0         0         0         0         0         0         0         0
         0         0         0         0         0         0         0         0
         0         0         0         0         0         0         0         0
         0         0         0         0         0         0         0         0
         0         0         0         0         0         0         0         0
         0         0         0         0         0         0         0         0
         0         0         0         0         0         0         0         0
         0         0         0         0         0         0         0         0
         0         0         0         0         0         0         0         0
         0         0         0         0         0         0         0         0
         0         0         0         0         0         0         0         0
         0         0         0         0         0         0         0         0
         0         0         0         0         0         0         0         0
         0         0         0         0         0         0         0         0
         0         0         0         0         0         0         0         0
         0         0         0         0         0         0         0         0
         0         0         0         0         0         0         0         0
         0         0         0         0         0         0         0         0
         0         0         0         0         0         0         0         0
         0         0         0         0         0         0         0         0
         0         0         0         0         0         0         0         0
         0         0         0         0         0         0         0         0
         0         0         0         0         0         0         0         0
         0         0         0         0         0         0         0         0
         0         0         0         0         0         0         0         0
         0         0         0         0         0         0         0         0
         0         0         0         0         0         0         0         0
         0         0         0         0         0         0         0         0
         0         0         0         0         0         0         0         0
         0         0         0         0         0         0         0         0
         0         0         0         0         0         0         0         0
         0         0         0         0         0         0         0         0
         0         0         0         0         0         0         0         0
         0         0         0         0         0         0         0         0
         0         0         0         0         0         0         0         0
         0         0         0         0         0         0         0         0
         0         0         0         0         0         0         0         0
         0         0         0         0         0         0         0         0
         0         0         0         0         0         0         0         0
         0         0         0         0         0         0         0         0
         0         0         0         0         0         0         0         0
         0         0         0         0         0         0         0         0
         0         0         0         0         0         0         0         0
         0         0         0         0         0         0         0         0
         0         0         0         0         0         0         0         0
         0         0         0         0         0         0         0         0
         0         0         0         0         0         0         0         0
         0         0         0         0         0         0         0         0
         0         0         0         0         0         0         0         0
         0         0         0         0         0         0         0         0
         0         0         0         0         0         0         0         0
         0         0         0         0         0         0         0         0
         0         0         0         0         0         0         0         0
         0         0         0         0         0         0         0         0
         0         0         0         0         0         0         0         0
         0         0         0         0         0         0         0         0
         0         0         0         0         0         0         0         0
         0         0         0         0         0         0         0         0
         0         0         0         0         0         0         0         0
         0         0         0         0         0         0         0         0
         0         0         0         0         0         0         0         0
         0         0         0         0         0         0         0         0
         0         0         0         0         0         0         0         0
         0         0         0         0         0         0         0         0
         0         0         0         0         0         0         0         0
         0         0         0         0         0         0         0         0
         0         0         0         0         0         0         0         0
         0         0         0         0         0         0         0         0
         0         0         0         0         0         0         0         0
         0         0         0         0         0         0         0         0
         0         0         0         0         0         0         0         0
         0         0         0         0         0         0         0         0
         0         0         0         0         0         0         0         0
         0         0         0         0         0         0         0         0
         0         0         0         0         0         0         0         0
         0         0         0         0         0         0         0         0
         0         0         0         0         0         0         0         0
         0         0         0         0         0         0         0         0
         0         0         0         0         0         0         0         0
         0         0         0         0         0         0         0         0
         0         0         0         0         0         0         0         0
         0         0         0         0         0         0         0         0
         0         0         0         0         0         0         0         0
         0         0         0         0         0         0         0         0
         0         0         0         0         0         0         0         0
         0         0         0         0         0         0         0         0
         0         0         0         0         0         0         0         0
         0         0         0         0         0         0         0         0
         0         0         0         0         0         0         0         0
         0         0         0         0         0         0         0         0
         0         0         0         0         0         0         0         0
         0         0         0         0         0         0         0         0
         0         0         0         0         0         0         0         0
         0         0         0         0         0         0         0         0
         0         0         0         0         0         0         0         0
         0         0         0         0         0         0         0         0
         0         0         0         0         0         0         0         0
         0         0         0         0         0         0         0         0
         0         0         0         0         0         0         0         0
         0         0         0         0         0         0         0         0
         0         0         0         0         0         0         0         0
         0         0         0         0         0         0         0         0
         0         0         0         0         0         0         0         0
         0         0         0         0         0         0         0         0
         0         0         0         0         0         0         0         0
         0         0         0         0         0         0         0         0
         0         0         0         0         0         0         0         0
         0         0         0         0         0         0         0         0
         0         0         0         0         0         0         0         0
         0         0         0         0         0         0         0         0
         0         0         0         0         0         0         0         0
         0         0         0         0         0         0         0         0
         0         0         0         0         0         0         0         0
         0         0         0         0         0         0         0         0
         0         0         0         0         0         0         0         0
         0         0         0         0         0         0         0         0
         0         0         0         0         0         0         0         0
         0         0         0         0         0         0         0         0
         0         0         0         0         0         0         0         0
         0         0         0         0         0         0         0         0
         0         0         0         0         0         0         0         0
         0         0         0         0         0         0         0         0
         0         0         0         0         0         0         0         0
         0         0         0         0         0         0         0         0
         0         0         0         0         0         0         0         0
         0         0         0         0         0         0         0         0
         0         0         0         0         0         0         0         0
         0         0         0         0         0         0         0         0
         0         0         0         0         0         0         0         0
         0         0         0         0         0         0         0         0
         0         0         0         0         0         0         0         0
         0         0         0         0         0         0         0         0
         0         0         0         0         0         0         0         0
         0         0         0         0         0         0         0         0
         0         0         0         0         0         0         0         0
         0         0         0         0         0         0         0         0
         0         0         0         0         0         0         0         0
         0         0         0         0         0         0         0         0
         0         0         0         0         0         0         0         0
         0         0         0         0         0         0         0         0
         0         0         0         0         0         0         0         0
         0         0         0         0         0         0         0         0
         0         0         0         0         0         0         0         0
         0         0         0         0         0         0         0         0
         0         0         0         0         0         0         0         0
         0         0         0         0         0         0         0         0
         0         0         0         0         0         0         0         0
         0         0         0         0         0         0         0         0
         0         0         0         0         0         0         0         0
         0         0         0         0         0         0         0         0
         0         0         0         0         0         0         0         0
         0         0         0         0         0         0         0         0
         0         0         0         0         0         0         0         0
         0         0         0         0         0         0         0         0
         0         0         0         0         0         0         0         0
         0         0         0         0         0         0         0         0
         0         0         0         0         0         0         0         0
         0         0         0         0         0         0         0         0
         0         0         0         0         0         0         0         0
         0         0         0         0         0         0         0         0
         0         0         0         0         0         0         0         0
         0         0         0         0         0         0         0         0
         0         0         0         0         0         0         0         0
         0         0         0         0         0         0         0         0
         0         0         0         0         0         0         0         0
         0         0         0         0         0         0         0         0
         0         0         0         0         0         0         0         0
         0         0         0         0         0         0         0         0
         0         0         0         0         0         0         0         0
         0         0         0         0         0         0         0         0
         0         0         0         0         0         0         0         0
         0         0         0         0         0         0         0         0
         0         0         0         0         0         0         0         0
         0         0         0         0         0         0         0         0
         0         0         0         0         0         0         0         0
         0         0         0         0         0         0         0         0
         0         0         0         0         0         0         0         0
         0         0         0         0         0         0         0         0
         0         0         0         0         0         0         0         0
         0         0         0         0         0         0         0         0
         0         0         0         0         0         0         0         0
         0         0         0         0         0         0         0         0
         0         0         0         0         0         0         0         0
         0         0         0         0         0         0         0         0
         0         0         0         0         0         0         0         0
         0         0         0         0         0         0         0         0
         0         0         0         0         0         0         0         0
         0         0         0         0         0         0         0         0
         0         0         0         0         0         0         0         0
         0         0         0         0         0         0         0         0
         0         0         0         0         0         0         0         0
         0         0         0         0         0         0         0         0
         0         0         0         0         0         0         0         0
         0         0         0         0         0         0         0         0
         0         0         0         0         0         0         0         0
         0         0         0         0         0         0         0         0
         0         0         0         0         0         0         0         0
         0         0         0         0         0         0         0         0
         0         0         0         0         0         0         0         0
         0         0         0         0         0         0         0         0
         0         0         0         0         0         0         0         0
         0         0         0         0         0         0         0         0
         0         0         0         0         0         0         0         0
         0         0         0         0         0         0         0         0
         0         0         0         0         0         0         0         0
         0         0         0         0         0         0         0         0
         0         0         0         0         0         0         0         0
         0         0         0         0         0         0         0         0
         0         0         0         0         0         0         0         0
         0         0         0         0         0         0         0         0
         0         0         0         0         0         0         0         0
         0         0         0         0         0         0         0         0
         0         0         0         0         0         0         0         0
         0         0         0         0         0         0         0         0
         0         0         0         0         0         0         0         0
         0         0         0         0         0         0         0         0
         0         0         0         0         0         0         0         0
         0         0         0         0         0         0         0         0
         0         0         0         0         0         0         0         0
         0         0         0         0         0         0         0         0
         0         0         0         0         0         0         0         0
         0         0         0         0         0         0         0         0
         0         0         0         0         0         0         0         0
         0         0         0         0         0         0         0         0
         0         0         0         0         0         0         0         0
         0         0         0         0         0         0         0         0
         0         0         0         0         0         0         0         0
         0         0         0         0         0         0         0         0
         0         0         0         0         0         0         0         0
         0         0         0         0         0         0         0         0
         0         0         0         0         0         0         0         0
         0         0         0         0         0         0         0         0
         0         0         0         0         0         0         0         0
         0         0         0         0         0         0         0         0
         0         0         0         0         0         0         0         0
         0         0         0         0         0         0         0         0
         0         0         0         0         0         0         0         0
         0         0         0         0         0         0         0         0
         0         0         0         0         0         0         0         0
         0         0         0         0         0         0         0         0
         0         0         0         0         0         0         0         0
         0         0         0         0         0         0         0         0
         0         0         0         0         0         0         0         0
         0         0         0         0         0         0         0         0
         0         0         0         0         0         0         0         0
         0         0         0         0         0         0         0         0
         0         0         0         0         0         0         0         0
         0         0         0         0         0         0         0         0
         0         0         0         0         0         0         0         0
         0         0         0         0         0         0         0         0
         0         0         0         0         0         0         0         0
         0         0         0         0         0         0         0         0
         0         0         0         0         0         0         0         0
         0         0         0         0         0         0         0         0
         0         0         0         0         0         0         0         0
         0         0         0         0         0         0         0         0
         0         0         0         0         0         0         0         0
         0         0         0         0         0         0         0         0
         0         0         0         0         0         0         0         0
         0         0         0         0         0         0         0         0
         0         0         0         0         0         0         0         0
         0         0         0         0         0         0         0         0
         0         0         0         0         0         0         0         0
         0         0         0         0         0         0         0         0
         0         0         0         0         0         0         0         0
         0         0         0         0         0         0         0         0
         0         0         0         0         0         0         0         0
         0         0         0         0         0         0         0         0
         0         0         0         0         0         0         0         0
         0         0         0         0         0         0         0         0
         0         0         0         0         0         0         0         0
         0         0         0         0         0         0         0         0
         0         0         0         0         0         0         0         0
         0         0         0         0         0         0         0         0
         0         0         0         0         0         0         0         0
         0         0         0         0         0         0         0         0
         0         0         0         0         0         0         0         0
         0         0         0         0         0         0         0         0
         0         0         0         0         0         0         0         0
         0         0         0         0         0         0         0         0
         0         0         0         0         0         0         0         0
         0         0         0         0         0         0         0         0
         0         0         0         0         0         0         0         0
         0         0         0         0         0         0         0         0
         0         0         0         0         0         0         0         0
         0         0         0         0         0         0         0         0
         0         0         0         0         0         0         0         0
         0         0         0         0         0         0         0         0
         0         0         0         0         0         0         0         0
         0         0         0         0         0         0         0         0
         0         0         0         0         0         0         0         0
         0         0         0         0         0         0         0         0
         0         0         0         0         0         0         0         0
         0         0         0         0         0         0         0         0
         0         0         0         0         0         0         0         0
         0         0         0         0         0         0         0         0
         0         0         0         0         0         0         0         0
         0         0         0         0         0         0         0         0
         0         0         0         0         0         0         0         0
         0         0         0         0         0         0         0         0
         0         0         0         0         0         0         0         0
         0         0         0         0         0         0         0         0
         0         0         0         0         0         0         0         0
         0         0         0         0         0         0         0         0
         0         0         0         0         0         0         0         0
         0         0         0         0         0         0         0         0
         0         0         0         0         0         0         0         0
         0         0         0         0         0         0         0         0
         0         0         0         0         0         0         0         0
         0         0         0         0         0         0         0         0
         0         0         0         0         0         0         0         0
         0         0         0         0         0         0         0         0
         0         0         0         0         0         0         0         0
         0         0         0         0         0         0         0         0
         0         0         0         0         0         0         0         0
         0         0         0         0         0         0         0         0
         0         0         0         0         0         0         0         0
         0         0         0         0         0         0         0         0
         0         0         0         0         0         0         0         0
         0         0         0         0         0         0         0         0
         0         0         0         0         0         0         0         0
         0         0         0         0         0         0         0         0
         0         0         0         0         0         0         0         0
         0         0         0         0         0         0         0         0
         0         0         0         0         0         0         0         0
         0         0         0         0         0         0         0         0
         0         0         0         0         0         0         0         0
         0         0         0         0         0         0         0         0
         0         0         0         0         0         0         0         0
         0         0         0         0         0         0         0         0
         0         0         0         0         0         0         0         0
         0         0         0         0         0         0         0         0
         0         0         0         0         0         0         0         0
         0         0         0         0         0         0         0         0
         0         0         0         0         0         0         0         0
         0         0         0         0         0         0         0         0
         0         0         0         0         0         0         0         0
         0         0         0         0         0         0         0         0
         0         0         0         0         0         0         0         0
         0         0         0         0         0         0         0         0
         0         0         0         0         0         0         0         0
         0         0         0         0         0         0         0         0
         0         0         0         0         0         0         0         0
         0         0         0         0         0         0         0         0
         0         0         0         0         0         0         0         0
         0         0         0         0         0         0         0         0
         0         0         0         0         0         0         0         0
         0         0         0         0         0         0         0         0
         0         0         0         0         0         0         0         0
         0         0         0         0         0         0         0         0
         0         0         0         0         0         0         0         0
         0         0         0         0         0         0         0         0
         0         0         0         0         0         0         0         0
         0         0         0         0         0         0         0         0
         0         0         0         0         0         0         0         0
         0         0         0         0         0         0         0         0
         0         0         0         0         0         0         0         0
         0         0         0         0         0         0         0         0
         0         0         0         0         0         0         0         0
         0         0         0         0         0         0         0         0
         0         0         0         0         0         0         0         0
         0         0         0         0         0         0         0         0
         0         0         0         0         0         0         0         0
         0         0         0         0         0         0         0         0
         0         0         0         0         0         0         0         0
         0         0         0         0         0         0         0         0
         0         0         0         0         0         0         0         0
         0         0         0         0         0         0         0         0
         0         0         0         0         0         0         0         0
         0         0         0         0         0         0         0         0
         0         0         0         0         0         0         0         0
         0         0         0         0         0         0         0         0
         0         0         0         0         0         0         0         0
         0         0         0         0         0         0         0         0
         0         0         0         0         0         0         0         0
         0         0         0         0         0         0         0         0
         0         0         0         0         0         0         0         0
         0         0         0         0         0         0         0         0
         0         0         0         0         0         0         0         0
         0         0         0         0         0         0         0         0
         0         0         0         0         0         0         0         0
         0         0         0         0         0         0         0         0
         0         0         0         0         0         0         0         0
         0         0         0         0         0         0         0         0
         0         0         0         0         0         0         0         0
         0         0         0         0         0         0         0         0
         0         0         0         0         0         0         0         0
         0         0         0         0         0         0         0         0
         0         0         0         0         0         0         0         0
         0         0         0         0         0         0         0         0
         0         0         0         0         0         0         0         0
         0         0         0         0         0         0         0         0
         0         0         0         0         0         0         0         0
         0         0         0         0         0         0         0         0
         0         0         0         0         0         0         0         0
         0         0         0         0         0         0         0         0
         0         0         0         0         0         0         0         0
         0         0         0         0         0         0         0         0
         0         0         0         0         0         0         0         0
         0         0         0         0         0         0         0         0
         0         0         0         0         0         0         0         0
         0         0         0         0         0         0         0         0
         0         0         0         0         0         0         0         0
         0         0         0         0         0         0         0         0
         0         0         0         0         0         0         0         0
         0         0         0         0         0         0         0         0
         0         0         0         0         0         0         0         0
         0         0         0         0         0         0         0         0
         0         0         0         0         0         0         0         0
         0         0         0         0         0         0         0         0
         0         0         0         0         0         0         0         0
         0         0         0         0         0         0         0         0
         0         0         0         0         0         0         0         0
         0         0         0         0         0         0         0         0
         0         0         0         0         0         0         0         0
         0         0         0         0         0         0         0         0
         0         0         0         0         0         0         0         0
         0         0         0         0         0         0         0         0
         0         0         0         0         0         0         0         0
         0         0         0         0         0         0         0         0
         0         0         0         0         0         0         0         0
         0         0         0         0         0         0         0         0
         0         0         0         0         0         0         0         0
         0         0         0         0         0         0         0         0
         0         0         0         0         0         0         0         0
         0         0         0         0         0         0         0         0
         0         0         0         0         0         0         0         0
         0         0         0         0         0         0         0         0
         0         0         0         0         0         0         0         0
         0         0         0         0         0         0         0         0
         0         0         0         0         0         0         0         0
         0         0         0         0         0         0         0         0
         0         0         0         0         0         0         0         0
         0         0         0         0         0         0         0         0
         0         0         0         0         0         0         0         0
         0         0         0         0         0         0         0         0
         0         0         0         0         0         0         0         0
         0         0         0         0         0         0         0         0
         0         0         0         0         0         0         0         0
         0         0         0         0         0         0         0         0
         0         0         0         0         0         0         0         0
         0         0         0         0         0         0         0         0
         0         0         0         0         0         0         0         0
         0         0         0         0         0         0         0         0
         0         0         0         0         0         0         0         0
         0         0         0         0         0         0         0         0
         0         0         0         0         0         0         0         0
         0         0         0         0         0         0         0         0
         0         0         0         0         0         0         0         0
         0         0         0         0         0         0         0         0
         0         0         0         0         0         0         0         0
         0         0         0         0         0         0         0         0
         0         0         0         0         0         0         0         0
         0         0         0         0         0         0         0         0
         0         0         0         0         0         0         0         0
         0         0         0         0         0         0         0         0
         0         0         0         0         0         0         0         0
         0         0         0         0         0         0         0         0
         0         0         0         0         0         0         0         0
         0         0         0         0         0         0         0         0
         0         0         0         0         0         0         0         0
         0         0         0         0         0         0         0         0
         0         0         0         0         0         0         0         0
         0         0         0         0         0         0         0         0
         0         0         0         0         0         0         0         0
         0         0         0         0         0         0         0         0
         0         0         0         0         0         0         0         0
         0         0         0         0         0         0         0         0
         0         0         0         0         0         0         0         0
         0         0         0         0         0         0         0         0
         0         0         0         0         0         0         0         0
         0         0         0         0         0         0         0         0
         0         0         0         0         0         0         0         0
         0         0         0         0         0         0         0         0
         0         0         0         0         0         0         0         0
         0         0         0         0         0         0         0         0
         0         0         0         0         0         0         0         0
         0         0         0         0         0         0         0         0
         0         0         0         0         0         0         0         0
         0         0         0         0         0         0         0         0
         0         0         0         0         0         0         0         0
         0         0         0         0         0         0         0         0
         0         0         0         0         0         0         0         0
         0         0         0         0         0         0         0         0
         0         0         0         0         0         0         0         0
         0         0         0         0         0         0         0         0
         0         0         0         0         0         0         0         0
         0         0         0         0         0         0         0         0
         0         0         0         0         0         0         0         0
         0         0         0         0         0         0         0         0
         0         0         0         0         0         0         0         0
         0         0         0         0         0         0         0         0
         0         0         0         0         0         0         0         0
         0         0         0         0         0         0         0         0
         0         0         0         0         0         0         0         0
         0         0         0         0         0         0         0         0
         0         0         0         0         0         0         0         0
         0         0         0         0         0         0         0         0
         0         0         0         0         0         0         0         0
         0         0         0         0         0         0         0         0
         0         0         0         0         0         0         0         0
         0         0         0         0         0         0         0         0
         0         0         0         0         0         0         0         0
         0         0         0         0         0         0         0         0
         0         0         0         0         0         0         0         0
         0         0         0         0         0         0         0         0
         0         0         0         0         0         0         0         0
         0         0         0         0         0         0         0         0
         0         0         0         0         0         0         0         0
         0         0         0         0         0         0         0         0
         0         0         0         0         0         0         0         0
         0         0         0         0         0         0         0         0
         0         0         0         0         0         0         0         0
         0         0         0         0         0         0         0         0
         0         0         0         0         0         0         0         0
         0         0         0         0         0         0         0         0
         0         0         0         0         0         0         0         0
         0         0         0         0         0         0         0         0
         0         0         0         0         0         0         0         0
         0         0         0         0         0         0         0         0
         0         0         0         0         0         0         0         0
         0         0         0         0         0         0         0         0
         0         0         0         0         0         0         0         0
         0         0         0         0         0         0         0         0
         0         0         0         0         0         0         0         0
         0         0         0         0         0         0         0         0
         0         0         0         0         0         0         0         0
         0         0         0         0         0         0         0         0
         0         0         0         0         0         0         0         0
         0         0         0         0         0         0         0         0
         0         0         0         0         0         0         0         0
         0         0         0         0         0         0         0         0
         0         0         0         0         0         0         0         0
         0         0         0         0         0         0         0         0
         0         0         0         0         0         0         0         0
         0         0         0         0         0         0         0         0
         0         0         0         0         0         0         0         0
         0         0         0         0         0         0         0         0
         0         0         0         0         0         0         0         0
         0         0         0         0         0         0         0         0
         0         0         0         0         0         0         0         0
         0         0         0         0         0         0         0         0
         0         0         0         0         0         0         0         0
         0         0         0         0         0         0         0         0
         0         0         0         0         0         0         0         0
         0         0         0         0         0         0         0         0
         0         0         0         0         0         0         0         0
         0         0         0         0         0         0         0         0
         0         0         0         0         0         0         0         0
         0         0         0         0         0         0         0         0
         0         0         0         0         0         0         0         0
         0         0         0         0         0         0         0         0
         0         0         0         0         0         0         0         0
         0         0         0         0         0         0         0         0
         0         0         0         0         0         0         0         0
         0         0         0         0         0         0         0         0
         0         0         0         0         0         0         0         0
         0         0         0         0         0         0         0         0
         0         0         0         0         0         0         0         0
         0         0         0         0         0         0         0         0
         0         0         0         0         0         0         0         0
         0         0         0         0         0         0         0         0
         0         0         0         0         0         0         0         0
         0         0         0         0         0         0         0         0
         0         0         0         0         0         0         0         0
         0         0         0         0         0         0         0         0
         0         0         0         0         0         0         0         0
         0         0         0         0         0         0         0         0
         0         0         0         0         0         0         0         0
         0         0         0         0         0         0         0         0
         0         0         0         0         0         0         0         0
         0         0         0         0         0         0         0         0
         0         0         0         0         0         0         0         0
         0         0         0         0         0         0         0         0
         0         0         0         0         0         0         0         0
         0         0         0         0         0         0         0         0
         0         0         0         0         0         0         0         0
         0         0         0         0         0         0         0         0
         0         0         0         0         0         0         0         0
         0         0         0         0         0         0         0         0
         0         0         0         0         0         0         0         0
         0         0         0         0         0         0         0         0
         0         0         0         0         0         0         0         0
         0         0         0         0         0         0         0         0
         0         0         0         0         0         0         0         0
         0         0         0         0         0         0         0         0
         0         0         0         0         0         0         0         0
         0         0         0         0         0         0         0         0
         0         0         0         0         0         0         0         0
         0         0         0         0         0         0         0         0
         0         0         0         0         0         0         0         0
         0         0         0         0         0         0         0         0
         0         0         0         0         0         0         0         0
         0         0         0         0         0         0         0         0
         0         0         0         0         0         0         0         0
         0         0         0         0         0         0         0         0
         0         0         0         0         0         0         0         0
         0         0         0         0         0         0         0         0
         0         0         0         0         0         0         0         0
         0         0         0         0         0         0         0         0
         0         0         0         0         0         0         0         0
         0         0         0         0         0         0         0         0
         0         0         0         0         0         0         0         0
         0         0         0         0         0         0         0         0
         0         0         0         0         0         0         0         0
         0         0         0         0         0         0         0         0
         0         0         0         0         0         0         0         0
         0         0         0         0         0         0         0         0
         0         0         0         0         0         0         0         0
         0         0         0         0         0         0         0         0
         0         0         0         0         0         0         0         0
         0         0         0         0         0         0         0         0
         0         0         0         0         0         0         0         0
         0         0         0         0         0         0         0         0
         0         0         0         0         0         0         0         0
         0         0         0         0         0         0         0         0
         0         0         0         0         0         0         0         0
         0         0         0         0         0         0         0         0
         0         0         0         0         0         0         0         0
         0         0         0         0         0         0         0         0
         0         0         0         0         0         0         0         0
         0         0         0         0         0         0         0         0
         0         0         0         0         0         0         0         0
         0         0         0         0         0         0         0         0
         0         0         0         0         0         0         0         0
         0         0         0         0         0         0         0         0
         0         0         0         0         0         0         0         0
         0         0         0         0         0         0         0         0
         0         0         0         0         0         0         0         0
         0         0         0         0         0         0         0         0
         0         0         0         0         0         0         0         0
         0         0         0         0         0         0         0         0
         0         0         0         0         0         0         0         0
         0         0         0         0         0         0         0         0
         0         0         0         0         0         0         0         0
         0         0         0         0         0         0         0         0
         0         0         0         0         0         0         0         0
         0         0         0         0         0         0         0         0
         0         0         0         0         0         0         0         0
         0         0         0         0         0         0         0         0
         0         0         0         0         0         0         0         0
         0         0         0         0         0         0         0         0
         0         0         0         0         0         0         0         0
         0         0         0         0         0         0         0         0
         0         0         0         0         0         0         0         0
         0         0         0         0         0         0         0         0
         0         0         0         0         0         0         0         0
         0         0         0         0         0         0         0         0
         0         0         0         0         0         0         0         0
         0         0         0         0         0         0         0         0
         0         0         0         0         0         0         0         0
         0         0         0         0         0         0         0         0
         0         0         0         0         0         0         0         0
         0         0         0         0         0         0         0         0
         0         0         0         0         0         0         0         0
         0         0         0         0         0         0         0         0
         0         0         0         0         0         0         0         0
         0         0         0         0         0         0         0         0
         0         0         0         0         0         0         0         0
         0         0         0         0         0         0         0         0
         0         0         0         0         0         0         0         0
         0         0         0         0         0         0         0         0
         0         0         0         0         0         0         0         0
         0         0         0         0         0         0         0         0
         0         0         0         0         0         0         0         0
         0         0         0         0         0         0         0         0
         0         0         0         0         0         0         0         0
         0         0         0         0         0         0         0         0
         0         0         0         0         0         0         0         0
         0         0         0         0         0         0         0         0
         0         0         0         0         0         0         0         0
         0         0         0         0         0         0         0         0
         0         0         0         0         0         0         0         0
         0         0         0         0         0         0         0         0
         0         0         0         0         0         0         0         0
         0         0         0         0         0         0         0         0
         0         0         0         0         0         0         0         0
         0         0         0         0         0         0         0         0
         0         0         0         0         0         0         0         0
         0         0         0         0         0         0         0         0
         0         0         0         0         0         0         0         0
         0         0         0         0         0         0         0         0
         0         0         0         0         0         0         0         0
         0         0         0         0         0         0         0         0
         0         0         0         0         0         0         0         0
         0         0         0         0         0         0         0         0
         0         0         0         0         0         0         0         0
         0         0         0         0         0         0         0         0
         0         0         0         0         0         0         0         0
         0         0         0         0         0         0         0         0
         0         0         0         0         0         0         0         0
         0         0         0         0         0         0         0         0
         0         0         0         0         0         0         0         0
         0         0         0         0         0         0         0         0
         0         0         0         0         0         0         0         0
         0         0         0         0         0         0         0         0
         0         0         0         0         0         0         0         0
         0         0         0         0         0         0         0         0
         0         0         0         0         0         0         0         0
         0         0         0         0         0         0         0         0
         0         0         0         0         0         0         0         0
         0         0         0         0         0         0         0         0
         0         0         0         0         0         0         0         0
         0         0         0         0         0         0         0         0
         0         0         0         0         0         0         0         0
         0         0         0         0         0         0         0         0
         0         0         0         0         0         0         0         0
         0         0         0         0         0         0         0         0
         0         0         0         0         0         0         0         0
         0         0         0         0         0         0         0         0
         0         0         0         0         0         0         0         0
         0         0         0         0         0         0         0         0
         0         0         0         0         0         0         0         0
         0         0         0         0         0         0         0         0
         0         0         0         0         0         0         0         0
         0         0         0         0         0         0         0         0
         0         0         0         0         0         0         0         0
         0         0         0         0         0         0         0         0
         0         0         0         0         0         0         0         0
         0         0         0         0         0         0         0         0
         0         0         0         0         0         0         0         0
         0         0         0         0         0         0         0         0
         0         0         0         0         0         0         0         0
         0         0         0         0         0         0         0         0
         0         0         0         0         0         0         0         0
         0         0         0         0         0         0         0         0
         0         0         0         0         0         0         0         0
         0         0         0         0         0         0         0         0
         0         0         0         0         0         0         0         0
         0         0         0         0         0         0         0         0
         0         0         0         0         0         0         0         0
         0         0         0         0         0         0         0         0
         0         0         0         0         0         0         0         0
         0         0         0         0         0         0         0         0
         0         0         0         0         0         0         0         0
         0         0         0         0         0         0         0         0
         0         0         0         0         0         0         0         0
         0         0         0         0         0         0         0         0
         0         0         0         0         0         0         0         0
         0         0         0         0         0         0         0         0
         0         0         0         0         0         0         0         0
         0         0         0         0         0         0         0         0
         0         0         0         0         0         0         0         0
         0         0         0         0         0         0         0         0
         0         0         0         0         0         0         0         0
         0         0         0         0         0         0         0         0
         0         0         0         0         0         0         0         0
         0         0         0         0         0         0         0         0
         0         0         0         0         0         0         0         0
         0         0         0         0         0         0         0         0
         0         0         0         0         0         0         0         0
         0         0         0         0         0         0         0         0
         0         0         0         0         0         0         0         0
         0         0         0         0         0         0         0         0
         0         0         0         0         0         0         0         0
         0         0         0         0         0         0         0         0
         0         0         0         0         0         0         0         0
         0         0         0         0         0         0         0         0
         0         0         0         0         0         0         0         0
         0         0         0         0         0         0         0         0
         0         0         0         0         0         0         0         0
         0         0         0         0         0         0         0         0
         0         0         0         0         0         0         0         0
         0         0         0         0         0         0         0         0
         0         0         0         0         0         0         0         0
         0         0         0         0         0         0         0         0
         0         0         0         0         0         0         0         0
         0         0         0         0         0         0         0         0
         0         0         0         0         0         0         0         0
         0         0         0         0         0         0         0         0
         0         0         0         0         0         0         0         0
         0         0         0         0         0         0         0         0
         0         0         0         0         0         0         0         0
         0         0         0         0         0         0         0         0
         0         0         0         0         0         0         0         0
         0         0         0         0         0         0         0         0
         0         0         0         0         0         0         0         0
         0         0         0         0         0         0         0         0
         0         0         0         0         0         0         0         0
         0         0         0         0         0         0         0         0
         0         0         0         0         0         0         0         0
         0         0         0         0         0         0         0         0
         0         0         0         0         0         0         0         0
         0         0         0         0         0         0         0         0
         0         0         0         0         0         0         0         0
         0         0         0         0         0         0         0         0
         0         0         0         0         0         0         0         0
         0         0         0         0         0         0         0         0
         0         0         0         0         0         0         0         0
         0         0         0         0         0         0         0         0
         0         0         0         0         0         0         0         0
         0         0         0         0         0         0         0         0
         0         0         0         0         0         0         0         0
         0         0         0         0         0         0         0         0
         0         0         0         0         0         0         0         0
         0         0         0         0         0         0         0         0
         0         0         0         0         0         0         0         0
         0         0         0         0         0         0         0         0
         0         0         0         0         0         0         0         0
         0         0         0         0         0         0         0         0
         0         0         0         0         0         0         0         0
         0         0         0         0         0         0         0         0
         0         0         0         0         0         0         0         0
         0         0         0         0         0         0         0         0
         0         0         0         0         0         0         0         0
         0         0         0         0         0         0         0         0
         0         0         0         0         0         0         0         0
         0         0         0         0         0         0         0         0
         0         0         0         0         0         0         0         0
         0         0         0         0         0         0         0         0
         0         0         0         0         0         0         0         0
         0         0         0         0         0         0         0         0
         0         0         0         0         0         0         0         0
         0         0         0         0         0         0         0         0
         0         0         0         0         0         0         0         0
         0         0         0         0         0         0         0         0
         0         0         0         0         0         0         0         0
         0         0         0         0         0         0         0         0
         0         0         0         0         0         0         0         0
         0         0         0         0         0         0         0         0
         0         0         0         0         0         0         0         0
         0         0         0         0         0         0         0         0
         0         0         0         0         0         0         0         0
         0         0         0         0         0         0         0         0
         0         0         0         0         0         0         0         0
         0         0         0         0         0         0         0         0
         0         0         0         0         0         0         0         0
         0         0         0         0         0         0         0         0
         0         0         0         0         0         0         0         0
         0         0         0         0         0         0         0         0
         0         0         0         0         0         0         0         0
         0         0         0         0         0         0         0         0
         0         0         0         0         0         0         0         0
         0         0         0         0         0         0         0         0
         0         0         0         0         0         0         0         0
         0         0         0         0         0         0         0         0
         0         0         0         0         0         0         0         0
         0         0         0         0         0         0         0         0
         0         0         0         0         0         0         0         0
         0         0         0         0         0         0         0         0
         0         0         0         0         0         0         0         0
         0         0         0         0         0         0         0         0
         0         0         0         0         0         0         0         0
         0         0         0         0         0         0         0         0
         0         0         0         0         0         0         0         0
         0         0         0         0         0         0         0         0
         0         0         0         0         0         0         0         0
         0         0         0         0         0         0         0         0
         0         0         0         0         0         0         0         0
         0         0         0         0         0         0         0         0
         0         0         0         0         0         0         0         0
         0         0         0         0         0         0         0         0
         0         0         0         0         0         0         0         0
         0         0         0         0         0         0         0         0
         0         0         0         0         0         0         0         0
         0         0         0         0         0         0         0         0
         0         0         0         0         0         0         0         0
         0         0         0         0         0         0         0         0
         0         0         0         0         0         0         0         0
         0         0         0         0         0         0         0         0
         0         0         0         0         0         0         0         0
         0         0         0         0         0         0         0         0
         0         0         0         0         0         0         0         0
         0         0         0         0         0         0         0         0
         0         0         0         0         0         0         0         0
         0         0         0         0         0         0         0         0
         0         0         0         0         0         0         0         0
         0         0         0         0         0         0         0         0
         0         0         0         0         0         0         0         0
         0         0         0         0         0         0         0         0
         0         0         0         0         0         0         0         0
         0         0         0         0         0         0         0         0
         0         0         0         0         0         0         0         0
         0         0         0         0         0         0         0         0
         0         0         0         0         0         0         0         0
         0         0         0         0         0         0         0         0
         0         0         0         0         0         0         0         0
         0         0         0         0         0         0         0         0
         0         0         0         0         0         0         0         0
         0         0         0         0         0         0         0         0
         0         0         0         0         0         0         0         0
         0         0         0         0         0         0         0         0
         0         0         0         0         0         0         0         0
         0         0         0         0         0         0         0         0
         0         0         0         0         0         0         0         0
         0         0         0         0         0         0         0         0
         0         0         0         0         0         0         0         0
         0         0         0         0         0         0         0         0
         0         0         0         0         0         0         0         0
         0         0         0         0         0         0         0         0
         0         0         0         0         0         0         0         0
         0         0         0         0         0         0         0         0
         0         0         0         0         0         0         0         0
         0         0         0         0         0         0         0         0
         0         0         0         0         0         0         0         0
         0         0         0         0         0         0         0         0
         0         0         0         0         0         0         0         0
         0         0         0         0         0         0         0         0
         0         0         0         0         0         0         0         0
         0         0         0         0         0         0         0         0
         0         0         0         0         0         0         0         0
         0         0         0         0         0         0         0         0
         0         0         0         0         0         0         0         0
         0         0         0         0         0         0         0         0
         0         0         0         0         0         0         0         0
         0         0         0         0         0         0         0         0
         0         0         0         0         0         0         0         0
         0         0         0         0         0         0         0         0
         0         0         0         0         0         0         0         0
         0         0         0         0         0         0         0         0
         0         0         0         0         0         0         0         0
         0         0         0         0         0         0         0         0
         0         0         0         0         0         0         0         0
         0         0         0         0         0         0         0         0
         0         0         0         0         0         0         0         0
         0         0         0         0         0         0         0         0
         0         0         0         0         0         0         0         0
         0         0         0         0         0         0         0         0
         0         0         0         0         0         0         0         0
         0         0         0         0         0         0         0         0
         0         0         0         0         0         0         0         0
         0         0         0         0         0         0         0         0
         0         0         0         0         0         0         0         0
         0         0         0         0         0         0         0         0
         0         0         0         0         0         0         0         0
         0         0         0         0         0         0         0         0
         0         0         0         0         0         0         0         0
         0         0         0         0         0         0         0         0
         0         0         0         0         0         0         0         0
         0         0         0         0         0         0         0         0
         0         0         0         0         0         0         0         0
         0         0         0         0         0         0         0         0
         0         0         0         0         0         0         0         0
         0         0         0         0         0         0         0         0
         0         0         0         0         0         0         0         0
         0         0         0         0         0         0         0         0
         0         0         0         0         0         0         0         0
         0         0         0         0         0         0         0         0
         0         0         0         0         0         0         0         0
         0         0         0         0         0         0         0         0
         0         0         0         0         0         0         0         0
         0         0         0         0         0         0         0         0
         0         0         0         0         0         0         0         0
         0         0         0         0         0         0         0         0
         0         0         0         0         0         0         0         0
         0         0         0         0         0         0         0         0
         0         0         0         0         0         0         0         0
         0         0         0         0         0         0         0         0
         0         0         0         0         0         0         0         0
         0         0         0         0         0         0         0         0
         0         0         0         0         0         0         0         0
         0         0         0         0         0         0         0         0
         0         0         0         0         0         0         0         0
         0         0         0         0         0         0         0         0
         0         0         0         0         0         0         0         0
         0         0         0         0         0         0         0         0
         0         0         0         0         0         0         0         0
         0         0         0         0         0         0         0         0
         0         0         0         0         0         0         0         0
         0         0         0         0         0         0         0         0
         0         0         0         0         0         0         0         0
         0         0         0         0         0         0         0         0
         0         0         0         0         0         0         0         0
         0         0         0         0         0         0         0         0
         0         0         0         0         0         0         0         0
         0         0         0         0         0         0         0         0
         0         0         0         0         0         0         0         0
         0         0         0         0         0         0         0         0
         0         0         0         0         0         0         0         0
         0         0         0         0         0         0         0         0
         0         0         0         0         0         0         0         0
         0         0         0         0         0         0         0         0
         0         0         0         0         0         0         0         0
         0         0         0         0         0         0         0         0
         0         0         0         0         0         0         0         0
         0         0         0         0         0         0         0         0
         0         0         0         0         0         0         0         0
         0         0         0         0         0         0         0         0
         0         0         0         0         0         0         0         0
         0         0         0         0         0         0         0         0
         0         0         0         0         0         0         0         0
         0         0         0         0         0         0         0         0
         0         0         0         0         0         0         0         0
         0         0         0         0         0         0         0         0
         0         0         0         0         0         0         0         0
         0         0         0         0         0         0         0         0
         0         0         0         0         0         0         0         0
         0         0         0         0         0         0         0         0
         0         0         0         0         0         0         0         0
         0         0         0         0         0         0         0         0
         0         0         0         0         0         0         0         0
         0         0         0         0         0         0         0         0
         0         0         0         0         0         0         0         0
         0         0         0         0         0         0         0         0
         0         0         0         0         0         0         0         0
         0         0         0         0         0         0         0         0
         0         0         0         0         0         0         0         0
         0         0         0         0         0         0         0         0
         0         0         0         0         0         0         0         0
         0         0         0         0         0         0         0         0
         0         0         0         0         0         0         0         0
         0         0         0         0         0         0         0         0
         0         0         0         0         0         0         0         0
         0         0         0         0         0         0         0         0
         0         0         0         0         0         0         0         0
         0         0         0         0         0         0         0         0
         0         0         0         0         0         0         0         0
         0         0         0         0         0         0         0         0
         0         0         0         0         0         0         0         0
         0         0         0         0         0         0         0         0
         0         0         0         0         0         0         0         0
         0         0         0         0         0         0         0         0
         0         0         0         0         0         0         0         0
         0         0         0         0         0         0         0         0
         0         0         0         0         0         0         0         0
         0         0         0         0         0         0         0         0
         0         0         0         0         0         0         0         0
         0         0         0         0         0         0         0         0
         0         0         0         0         0         0         0         0
         0         0         0         0         0         0         0         0
         0         0         0         0         0         0         0         0
         0         0         0         0         0         0         0         0
         0         0         0         0         0         0         0         0
         0         0         0         0         0         0         0         0
         0         0         0         0         0         0         0         0
         0         0         0         0         0         0         0         0
         0         0         0         0         0         0         0         0
         0         0         0         0         0         0         0         0
         0         0         0         0         0         0         0         0
         0         0         0         0         0         0         0         0
         0         0         0         0         0         0         0         0
         0         0         0         0         0         0         0         0
         0         0         0         0         0         0         0         0
         0         0         0         0         0         0         0         0
         0         0         0         0         0         0         0         0
         0         0         0         0         0         0         0         0
         0         0         0         0         0         0         0         0
         0         0         0         0         0         0         0         0
         0         0         0         0         0         0         0         0
         0         0         0         0         0         0         0         0
         0         0         0         0         0         0         0         0
         0         0         0         0         0         0         0         0
         0         0         0         0         0         0         0         0
         0         0         0         0         0         0         0         0
         0         0         0         0         0         0         0         0
         0         0         0         0         0         0         0         0
         0         0         0         0         0         0         0         0
         0         0         0         0         0         0         0         0
         0         0         0         0         0         0         0         0
         0         0         0         0         0         0         0         0
         0         0         0         0         0         0         0         0
         0         0         0         0         0         0         0         0
         0         0         0         0         0         0         0         0
         0         0         0         0         0         0         0         0
         0         0         0         0         0         0         0         0
         0         0         0         0         0         0         0         0
         0         0         0         0         0         0         0         0
         0         0         0         0         0         0         0         0
         0         0         0         0         0         0         0         0
         0         0         0         0         0         0         0         0
         0         0         0         0         0         0         0         0
         0         0         0         0         0         0         0         0
         0         0         0         0         0         0         0         0
         0         0         0         0         0         0         0         0
         0         0         0         0         0         0         0         0
         0         0         0         0         0         0         0         0
         0         0         0         0         0         0         0         0
         0         0         0         0         0         0         0         0
         0         0         0         0         0         0         0         0
         0         0         0         0         0         0         0         0
         0         0         0         0         0         0         0         0
         0         0         0         0         0         0         0         0
         0         0         0         0         0         0         0         0
         0         0         0         0         0         0         0         0
         0         0         0         0         0         0         0         0
         0         0         0         0         0         0         0         0
         0         0         0         0         0         0         0         0
         0         0         0         0         0         0         0         0
         0         0         0         0         0         0         0         0
         0         0         0         0         0         0         0         0
         0         0         0         0         0         0         0         0
         0         0         0         0         0         0         0         0
         0         0         0         0         0         0         0         0
         0         0         0         0         0         0         0         0
         0         0         0         0         0         0         0         0
         0         0         0         0         0         0         0         0
         0         0         0         0         0         0         0         0
         0         0         0         0         0         0         0         0
         0         0         0         0         0         0         0         0
         0         0         0         0         0         0         0         0
         0         0         0         0         0         0         0         0
         0         0         0         0         0         0         0         0
         0         0         0         0         0         0         0         0
         0         0         0         0         0         0         0         0
         0         0         0         0         0         0         0         0
         0         0         0         0         0         0         0         0
         0         0         0         0         0         0         0         0
         0         0         0         0         0         0         0         0
         0         0         0         0         0         0         0         0
         0         0         0         0         0         0         0         0
         0         0         0         0         0         0         0         0
         0         0         0         0         0         0         0         0
         0         0         0         0         0         0         0         0
         0         0         0         0         0         0         0         0
         0         0         0         0         0         0         0         0
         0         0         0         0         0         0         0         0
         0         0         0         0         0         0         0         0
         0         0         0         0         0         0         0         0
         0         0         0         0         0         0         0         0
         0         0         0         0         0         0         0         0
         0         0         0         0         0         0         0         0
         0         0         0         0         0         0         0         0
         0         0         0         0         0         0         0         0
         0         0         0         0         0         0         0         0
         0         0         0         0         0         0         0         0
         0         0         0         0         0         0         0         0
         0         0         0         0         0         0         0         0
         0         0         0         0         0         0         0         0
         0         0         0         0         0         0         0         0
         0         0         0         0         0         0         0         0
         0         0         0         0         0         0         0         0
         0         0         0         0         0         0         0         0
         0         0         0         0         0         0         0         0
         0         0         0         0         0         0         0         0
         0         0         0         0         0         0         0         0
         0         0         0         0         0         0         0         0
         0         0         0         0         0         0         0         0
         0         0         0         0         0         0         0         0
         0         0         0         0         0         0         0         0
         0         0         0         0         0         0         0         0
         0         0         0         0         0         0         0         0
         0         0         0         0         0         0         0         0
         0         0         0         0         0         0         0         0
         0         0         0         0         0         0         0         0
         0         0         0         0         0         0         0         0
         0         0         0         0         0         0         0         0
         0         0         0         0         0         0         0         0
         0         0         0         0         0         0         0         0
         0         0         0         0         0         0         0         0
         0         0         0         0         0         0         0         0
         0         0         0         0         0         0         0         0
         0         0         0         0         0         0         0         0
         0         0         0         0         0         0         0         0
         0         0         0         0         0         0         0         0
         0         0         0         0         0         0         0         0
         0         0         0         0         0         0         0         0
         0         0         0         0         0         0         0         0
         0         0         0         0         0         0         0         0
         0         0         0         0         0         0         0         0
         0         0         0         0         0         0         0         0
         0         0         0         0         0         0         0         0
         0         0         0         0         0         0         0         0
         0         0         0         0         0         0         0         0
         0         0         0         0         0         0         0         0
         0         0         0         0         0         0         0         0
         0         0         0         0         0         0         0         0
         0         0         0         0         0         0         0         0
         0         0         0         0         0         0         0         0
         0         0         0         0         0         0         0         0
         0         0         0         0         0         0         0         0
         0         0         0         0         0         0         0         0
         0         0         0         0         0         0         0         0
         0         0         0         0         0         0         0         0
         0         0         0         0         0         0         0         0
         0         0         0         0         0         0         0         0
         0         0         0         0         0         0         0         0
         0         0         0         0         0         0         0         0
         0         0         0         0         0         0         0         0
         0         0         0         0         0         0         0         0
         0         0         0         0         0         0         0         0
         0         0         0         0         0         0         0         0
         0         0         0         0         0         0         0         0
         0         0         0         0         0         0         0         0
         0         0         0         0         0         0         0         0
         0         0         0         0         0         0         0         0
         0         0         0         0         0         0         0         0
         0         0         0         0         0         0         0         0
         0         0         0         0         0         0         0         0
         0         0         0         0         0         0         0         0
         0         0         0         0         0         0         0         0
         0         0         0         0         0         0         0         0
         0         0         0         0         0         0         0         0
         0         0         0         0         0         0         0         0
         0         0         0         0         0         0         0         0
         0         0         0         0         0         0         0         0
         0         0         0         0         0         0         0         0
         0         0         0         0         0         0         0         0
         0         0         0         0         0         0         0         0
         0         0         0         0         0         0         0         0
         0         0         0         0         0         0         0         0
         0         0         0         0         0         0         0         0
         0         0         0         0         0         0         0         0
         0         0         0         0         0         0         0         0
         0         0         0         0         0         0         0         0
         0         0         0         0         0         0         0         0
         0         0         0         0         0         0         0         0
         0         0         0         0         0         0         0         0
         0         0         0         0         0         0         0         0
         0         0         0         0         0         0         0         0
         0         0         0         0         0         0         0         0
         0         0         0         0         0         0         0         0
         0         0         0         0         0         0         0         0
         0         0         0         0         0         0         0         0
         0         0         0         0         0         0         0         0
         0         0         0         0         0         0         0         0
         0         0         0         0         0         0         0         0
         0         0         0         0         0         0         0         0
         0         0         0         0         0         0         0         0
         0         0         0         0         0         0         0         0
         0         0         0         0         0         0         0         0
         0         0         0         0         0         0         0         0
         0         0         0         0         0         0         0         0
         0         0         0         0         0         0         0         0
         0         0         0         0         0         0         0         0
         0         0         0         0         0         0         0         0
         0         0         0         0         0         0         0         0
         0         0         0         0         0         0         0         0
         0         0         0         0         0         0         0         0
         0         0         0         0         0         0         0         0
         0         0         0         0         0         0         0         0
         0         0         0         0         0         0         0         0
         0         0         0         0         0         0         0         0
         0         0         0         0         0         0         0         0
         0         0         0         0         0         0         0         0
         0         0         0         0         0         0         0         0
         0         0         0         0         0         0         0         0
         0         0         0         0         0         0         0         0
         0         0         0         0         0         0         0         0
         0         0         0         0         0         0         0         0
         0         0         0         0         0         0         0         0
         0         0         0         0         0         0         0         0
         0         0         0         0         0         0         0         0
         0         0         0         0         0         0         0         0
         0         0         0         0         0         0         0         0
         0         0         0         0         0         0         0         0
         0         0         0         0         0         0         0         0
         0         0         0         0         0         0         0         0
         0         0         0         0         0         0         0         0
         0         0         0         0         0         0         0         0
         0         0         0         0         0         0         0         0
         0         0         0         0         0         0         0         0
         0         0         0         0         0         0         0         0
         0         0         0         0         0         0         0         0
         0         0         0         0         0         0         0         0
         0         0         0         0         0         0         0         0
         0         0         0         0         0         0         0         0
         0         0         0         0         0         0         0         0
         0         0         0         0         0         0         0         0
         0         0         0         0         0         0         0         0
         0         0         0         0         0         0         0         0
         0         0         0         0         0         0         0         0
         0         0         0         0         0         0         0         0
         0         0         0         0         0         0         0         0
         0         0         0         0         0         0         0         0
         0         0         0         0         0         0         0         0
         0         0         0         0         0         0         0         0
         0         0         0         0         0         0         0         0
         0         0         0         0         0         0         0         0
         0         0         0         0         0         0         0         0
         0         0         0         0         0         0         0         0
         0         0         0         0         0         0         0         0
         0         0         0         0         0         0         0         0
         0         0         0         0         0         0         0         0
         0         0         0         0         0         0         0         0
         0         0         0         0         0         0         0         0
         0         0         0         0         0         0         0         0
         0         0         0         0         0         0         0         0
         0         0         0         0         0         0         0         0
         0         0         0         0         0         0         0         0
         0         0         0         0         0         0         0         0
         0         0         0         0         0         0         0         0
         0         0         0         0         0         0         0         0
         0         0         0         0         0         0         0         0
         0         0         0         0         0         0         0         0
         0         0         0         0         0         0         0         0
         0         0         0         0         0         0         0         0
         0         0         0         0         0         0         0         0
         0         0         0         0         0         0         0         0
         0         0         0         0         0         0         0         0
         0         0         0         0         0         0         0         0
         0         0         0         0         0         0         0         0
         0         0         0         0         0         0         0         0
         0         0         0         0         0         0         0         0
         0         0         0         0         0         0         0         0
         0         0         0         0         0         0         0         0
         0         0         0         0         0         0         0         0
         0         0         0         0         0         0         0         0
         0         0         0         0         0         0         0         0
         0         0         0         0         0         0         0         0
         0         0         0         0         0         0         0         0
         0         0         0         0         0         0         0         0
         0         0         0         0         0         0         0         0
         0         0         0         0         0         0         0         0
         0         0         0         0         0         0         0         0
         0         0         0         0         0         0         0         0
         0         0         0         0         0         0         0         0
         0         0         0         0         0         0         0         0
         0         0         0         0         0         0         0         0
         0         0         0         0         0         0         0         0
         0         0         0         0         0         0         0         0
         0         0         0         0         0         0         0         0
         0         0         0         0         0         0         0         0
         0         0         0         0         0         0         0         0
         0         0         0         0         0         0         0         0
         0         0         0         0         0         0         0         0
         0         0         0         0         0         0         0         0
         0         0         0         0         0         0         0         0
         0         0         0         0         0         0         0         0
         0         0         0         0         0         0         0         0
         0         0         0         0         0         0         0         0
         0         0         0         0         0         0         0         0
         0         0         0         0         0         0         0         0
         0         0         0         0         0         0         0         0
         0         0         0         0         0         0         0         0
         0         0         0         0         0         0         0         0
         0         0         0         0         0         0         0         0
         0         0         0         0         0         0         0         0
         0         0         0         0         0         0         0         0
         0         0         0         0         0         0         0         0
         0         0         0         0         0         0         0         0
         0         0         0         0         0         0         0         0
         0         0         0         0         0         0         0         0
         0         0         0         0         0         0         0         0
         0         0         0         0         0         0         0         0
         0         0         0         0         0         0         0         0
         0         0         0         0         0         0         0         0
         0         0         0         0         0         0         0         0
         0         0         0         0         0         0         0         0
         0         0         0         0         0         0         0         0
         0         0         0         0         0         0         0         0
         0         0         0         0         0         0         0         0
         0         0         0         0         0         0         0         0
         0         0         0         0         0         0         0         0
         0         0         0         0         0         0         0         0
         0         0         0         0         0         0         0         0
         0         0         0         0         0         0         0         0
         0         0         0         0         0         0         0         0
         0         0         0         0         0         0         0         0
         0         0         0         0         0         0         0         0
         0         0         0         0         0         0         0         0
         0         0         0         0         0         0         0         0
         0         0         0         0         0         0         0         0
         0         0         0         0         0         0         0         0
         0         0         0         0         0         0         0         0
         0         0         0         0         0         0         0         0
         0         0         0         0         0         0         0         0
         0         0         0         0         0         0         0         0
         0         0         0         0         0         0         0         0
         0         0         0         0         0         0         0         0
         0         0         0         0         0         0         0         0
         0         0         0         0         0         0         0         0
         0         0         0         0         0         0         0         0
         0         0         0         0         0         0         0         0
         0         0         0         0         0         0         0         0
         0         0         0         0         0         0         0         0
         0         0         0         0         0         0         0         0
         0         0         0         0         0         0         0         0
         0         0         0         0         0         0         0         0
         0         0         0         0         0         0         0         0
         0         0         0         0         0         0         0         0
         0         0         0         0         0         0         0         0
         0         0         0         0         0         0         0         0
         0         0         0         0         0         0         0         0
         0         0         0         0         0         0         0         0
         0         0         0         0         0         0         0         0
         0         0         0         0         0         0         0         0
         0         0         0         0         0         0         0         0
         0         0         0         0         0         0         0         0
         0         0         0         0         0         0         0         0
         0         0         0         0         0         0         0         0
         0         0         0         0         0         0         0         0
         0         0         0         0         0         0         0         0
         0         0         0         0         0         0         0         0
         0         0         0         0         0         0         0         0
         0         0         0         0         0         0         0         0
         0         0         0         0         0         0         0         0
         0         0         0         0         0         0         0         0
         0         0         0         0         0         0         0         0
         0         0         0         0         0         0         0         0
         0         0         0         0         0         0         0         0
         0         0         0         0         0         0         0         0
         0         0         0         0         0         0         0         0
         0         0         0         0         0         0         0         0
         0         0         0         0         0         0         0         0
         0         0         0         0         0         0         0         0
         0         0         0         0         0         0         0         0
         0         0         0         0         0         0         0         0
         0         0         0         0         0         0         0         0
         0         0         0         0         0         0         0         0
         0         0         0         0         0         0         0         0
         0         0         0         0         0         0         0         0
         0         0         0         0         0         0         0         0
         0         0         0         0         0         0         0         0
         0         0         0         0         0         0         0         0
         0         0         0         0         0         0         0         0
         0         0         0         0         0         0         0         0
         0         0         0         0         0         0         0         0
         0         0         0         0         0         0         0         0
         0         0         0         0         0         0         0         0
         0         0         0         0         0         0         0         0
         0         0         0         0         0         0         0         0
         0         0         0         0         0         0         0         0
         0         0         0         0         0         0         0         0
         0         0         0         0         0         0         0         0
         0         0         0         0         0         0         0         0
         0         0         0         0         0         0         0         0
         0         0         0         0         0         0         0         0
         0         0         0         0         0         0         0         0
         0         0         0         0         0         0         0         0
         0         0         0         0         0         0         0         0
         0         0         0         0         0         0         0         0
         0         0         0         0         0         0         0         0
         0         0         0         0         0         0         0         0
         0         0         0         0         0         0         0         0
         0         0         0         0         0         0         0         0
         0         0         0         0         0         0         0         0
         0         0         0         0         0         0         0         0
         0         0         0         0         0         0         0         0
         0         0         0         0         0         0         0         0
         0         0         0         0         0         0         0         0
         0         0         0         0         0         0         0         0
         0         0         0         0         0         0         0         0
         0         0         0         0         0         0         0         0
         0         0         0         0         0         0         0         0
         0         0         0         0         0         0         0         0
         0         0         0         0         0         0         0         0
         0         0         0         0         0         0         0         0
         0         0         0         0         0         0         0         0
         0         0         0         0         0         0         0         0
         0         0         0         0         0         0         0         0
         0         0         0         0         0         0         0         0
         0         0         0         0         0         0         0         0
         0         0         0         0         0         0         0         0
         0         0         0         0         0         0         0         0
         0         0         0         0         0         0         0         0
         0         0         0         0         0         0         0         0
         0         0         0         0         0         0         0         0
         0         0         0         0         0         0         0         0
         0         0         0         0         0         0         0         0
         0         0         0         0         0         0         0         0
         0         0         0         0         0         0         0         0
         0         0         0         0         0         0         0         0
         0         0         0         0         0         0         0         0
         0         0         0         0         0         0         0         0
         0         0         0         0         0         0         0         0
         0         0         0         0         0         0         0         0
         0         0         0         0         0         0         0         0
         0         0         0         0         0         0         0         0
         0         0         0         0         0         0         0         0
         0         0         0         0         0         0         0         0
         0         0         0         0         0         0         0         0
         0         0         0         0         0         0         0         0
         0         0         0         0         0         0         0         0
         0         0         0         0         0         0         0         0
         0         0         0         0         0         0         0         0
         0         0         0         0         0         0         0         0
         0         0         0         0         0         0         0         0
         0         0         0         0         0         0         0         0
         0         0         0         0         0         0         0         0
         0         0         0         0         0         0         0         0
         0         0         0         0         0         0         0         0
         0         0         0         0         0         0         0         0
         0         0         0         0         0         0         0         0
         0         0         0         0         0         0         0         0
         0         0         0         0         0         0         0         0
         0         0         0         0         0         0         0         0
         0         0         0         0         0         0         0         0
         0         0         0         0         0         0         0         0
         0         0         0         0         0         0         0         0
         0         0         0         0         0         0         0         0
         0         0         0         0         0         0         0         0
         0         0         0         0         0         0         0         0
         0         0         0         0         0         0         0         0
         0         0         0         0         0         0         0         0
         0         0         0         0         0         0         0         0
         0         0         0         0         0         0         0         0
         0         0         0         0         0         0         0         0
         0         0         0         0         0         0         0         0
         0         0         0         0         0         0         0         0
         0         0         0         0         0         0         0         0
         0         0         0         0         0         0         0         0
         0         0         0         0         0         0         0         0
         0         0         0         0         0         0         0         0
         0         0         0         0         0         0         0         0
         0         0         0         0         0         0         0         0
         0         0         0         0         0         0         0         0
         0         0         0         0         0         0         0         0
         0         0         0         0         0         0         0         0
         0         0         0         0         0         0         0         0
         0         0         0         0         0         0         0         0
         0         0         0         0         0         0         0         0
         0         0         0         0         0         0         0         0
         0         0         0         0         0         0         0         0
         0         0         0         0         0         0         0         0
         0         0         0         0         0         0         0         0
         0         0         0         0         0         0         0         0
         0         0         0         0         0         0         0         0
         0         0         0         0         0         0         0         0
         0         0         0         0         0         0         0         0
         0         0         0         0         0         0         0         0
         0         0         0         0         0         0         0         0
         0         0         0         0         0         0         0         0
         0         0         0         0         0         0         0         0
         0         0         0         0         0         0         0         0
         0         0         0         0         0         0         0         0
         0         0         0         0         0         0         0         0
         0         0         0         0         0         0         0         0
         0         0         0         0         0         0         0         0
         0         0         0         0         0         0         0         0
         0         0         0         0         0         0         0         0
         0         0         0         0         0         0         0         0
         0         0         0         0         0         0         0         0
         0         0         0         0         0         0         0         0
         0         0         0         0         0         0         0         0
         0         0         0         0         0         0         0         0
         0         0         0         0         0         0         0         0
         0         0         0         0         0         0         0         0
         0         0         0         0         0         0         0         0
         0         0         0         0         0         0         0         0
         0         0         0         0         0         0         0         0
         0         0         0         0         0         0         0         0
         0         0         0         0         0         0         0         0
         0         0         0         0         0         0         0         0
         0         0         0         0         0         0         0         0
         0         0         0         0         0         0         0         0
         0         0         0         0         0         0         0         0
         0         0         0         0         0         0         0         0
         0         0         0         0         0         0         0         0
         0         0         0         0         0         0         0         0
         0         0         0         0         0         0         0         0
         0         0         0         0         0         0         0         0
         0         0         0         0         0         0         0         0
         0         0         0         0         0         0         0         0
         0         0         0         0         0         0         0         0
         0         0         0         0         0         0         0         0
         0         0         0         0         0         0         0         0
         0         0         0         0         0         0         0         0
         0         0         0         0         0         0         0         0
         0         0         0         0         0         0         0         0
         0         0         0         0         0         0         0         0
         0         0         0         0         0         0         0         0
         0         0         0         0         0         0         0         0
         0         0         0         0         0         0         0         0
         0         0         0         0         0         0         0         0
         0         0         0         0         0         0         0         0
         0         0         0         0         0         0         0         0
         0         0         0         0         0         0         0         0
         0         0         0         0         0         0         0         0
         0         0         0         0         0         0         0         0
         0         0         0         0         0         0         0         0
         0         0         0         0         0         0         0         0
         0         0         0         0         0         0         0         0
         0         0         0         0         0         0         0         0
         0         0         0         0         0         0         0         0
         0         0         0         0         0         0         0         0
         0         0         0         0         0         0         0         0
         0         0         0         0         0         0         0         0
         0         0         0         0         0         0         0         0
         0         0         0         0         0         0         0         0
         0         0         0         0         0         0         0         0
         0         0         0         0         0         0         0         0
         0         0         0         0         0         0         0         0
         0         0         0         0         0         0         0         0
         0         0         0         0         0         0         0         0
         0         0         0         0         0         0         0         0
         0         0         0         0         0         0         0         0
         0         0         0         0         0         0         0         0
         0         0         0         0         0         0         0         0
         0         0         0         0         0         0         0         0
         0         0         0         0         0         0         0         0
         0         0         0         0         0         0         0         0
         0         0         0         0         0         0         0         0
         0         0         0         0         0         0         0         0
         0         0         0         0         0         0         0         0
         0         0         0         0         0         0         0         0
         0         0         0         0         0         0         0         0
         0         0         0         0         0         0         0         0
         0         0         0         0         0         0         0         0
         0         0         0         0         0         0         0         0
         0         0         0         0         0         0         0         0
         0         0         0         0         0         0         0         0
         0         0         0         0         0         0         0         0
         0         0         0         0         0         0         0         0
         0         0         0         0         0         0         0         0
         0         0         0         0         0         0         0         0
         0         0         0         0         0         0         0         0
         0         0         0         0         0         0         0         0
         0         0         0         0         0         0         0         0
         0         0         0         0         0         0         0         0
         0         0         0         0         0         0         0         0
         0         0         0         0         0         0         0         0
         0         0         0         0         0         0         0         0
         0         0         0         0         0         0         0         0
         0         0         0         0         0         0         0         0
         0         0         0         0         0         0         0         0
         0         0         0         0         0         0         0         0
         0         0         0         0         0         0         0         0
         0         0         0         0         0         0         0         0
         0         0         0         0         0         0         0         0
         0         0         0         0         0         0         0         0
         0         0         0         0         0         0         0         0
         0         0         0         0         0         0         0         0
         0         0         0         0         0         0         0         0
         0         0         0         0         0         0         0         0
         0         0         0         0         0         0         0         0
         0         0         0         0         0         0         0         0
         0         0         0         0         0         0         0         0
         0         0         0         0         0         0         0         0
         0         0         0         0         0         0         0         0
         0         0         0         0         0         0         0         0
         0         0         0         0         0         0         0         0
         0         0         0         0         0         0         0         0
         0         0         0         0         0         0         0         0
         0         0         0         0         0         0         0         0
         0         0         0         0         0         0         0         0
         0         0         0         0         0         0         0         0
         0         0         0         0         0         0         0         0
         0         0         0         0         0         0         0         0
         0         0         0         0         0         0         0         0
         0         0         0         0         0         0         0         0
         0         0         0         0         0         0         0         0
         0         0         0         0         0         0         0         0
         0         0         0         0         0         0         0         0
         0         0         0         0         0         0         0         0
         0         0         0         0         0         0         0         0
         0         0         0         0         0         0         0         0
         0         0         0         0         0         0         0         0
         0         0         0         0         0         0         0         0
         0         0         0         0         0         0         0         0
         0         0         0         0         0         0         0         0
         0         0         0         0         0         0         0         0
         0         0         0         0         0         0         0         0
         0         0         0         0         0         0         0         0
         0         0         0         0         0         0         0         0
         0         0         0         0         0         0         0         0
         0         0         0         0         0         0         0         0
         0         0         0         0         0         0         0         0
         0         0         0         0         0         0         0         0
         0         0         0         0         0         0         0         0
         0         0         0         0         0         0         0         0
         0         0         0         0         0         0         0         0
         0         0         0         0         0         0         0         0
         0         0         0         0         0         0         0         0
         0         0         0         0         0         0         0         0
         0         0         0         0         0         0         0         0
         0         0         0         0         0         0         0         0
         0         0         0         0         0         0         0         0
         0         0         0         0         0         0         0         0
         0         0         0         0         0         0         0         0
         0         0         0         0         0         0         0         0
         0         0         0         0         0         0         0         0
         0         0         0         0         0         0         0         0
         0         0         0         0         0         0         0         0
         0         0         0         0         0         0         0         0
         0         0         0         0         0         0         0         0
         0         0         0         0         0         0         0         0
         0         0         0         0         0         0         0         0
         0         0         0         0         0         0         0         0
         0         0         0         0         0         0         0         0
         0         0         0         0         0         0         0         0
         0         0         0         0         0         0         0         0
         0         0         0         0         0         0         0         0
         0         0         0         0         0         0         0         0
         0         0         0         0         0         0         0         0
         0         0         0         0         0         0         0         0
         0         0         0         0         0         0         0         0
         0         0         0         0         0         0         0         0
         0         0         0         0         0         0         0         0
         0         0         0         0         0         0         0         0
         0         0         0         0         0         0         0         0
         0         0         0         0         0         0         0         0
         0         0         0         0         0         0         0         0
         0         0         0         0         0         0         0         0
         0         0         0         0         0         0         0         0
         0         0         0         0         0         0         0         0
         0         0         0         0         0         0         0         0
         0         0         0         0         0         0         0         0
         0         0         0         0         0         0         0         0
         0         0         0         0         0         0         0         0
         0         0         0         0         0         0         0         0
         0         0         0         0         0         0         0         0
         0         0         0         0         0         0         0         0
         0         0         0         0         0         0         0         0
         0         0         0         0         0         0         0         0
         0         0         0         0         0         0         0         0
         0         0         0         0         0         0         0         0
         0         0         0         0         0         0         0         0
         0         0         0         0         0         0         0         0
         0         0         0         0         0         0         0         0
         0         0         0         0         0         0         0         0
         0         0         0         0         0         0         0         0
         0         0         0         0         0         0         0         0
         0         0         0         0         0         0         0         0
         0         0         0         0         0         0         0         0
         0         0         0         0         0         0         0         0
         0         0         0         0         0         0         0         0
         0         0         0         0         0         0         0         0
         0         0         0         0         0         0         0         0
         0         0         0         0         0         0         0         0
         0         0         0         0         0         0         0         0
         0         0         0         0         0         0         0         0
         0         0         0         0         0         0         0         0
         0         0         0         0         0         0         0         0
         0         0         0         0         0         0         0         0
         0         0         0         0         0         0         0         0
         0         0         0         0         0         0         0         0
         0         0         0         0         0         0         0         0
         0         0         0         0         0         0         0         0
         0         0         0         0         0         0         0         0
         0         0         0         0         0         0         0         0
         0         0         0         0         0         0         0         0
         0         0         0         0         0         0         0         0
         0         0         0         0         0         0         0         0
         0         0         0         0         0         0         0         0
         0         0         0         0         0         0         0         0
         0         0         0         0         0         0         0         0
         0         0         0         0         0         0         0         0
         0         0         0         0         0         0         0         0
         0         0         0         0         0         0         0         0
         0         0         0         0         0         0         0         0
         0         0         0         0         0         0         0         0
         0         0         0         0         0         0         0         0
         0         0         0         0         0         0         0         0
         0         0         0         0         0         0         0         0
         0         0         0         0         0         0         0         0
         0         0         0         0         0         0         0         0
         0         0         0         0         0         0         0         0
         0         0         0         0         0         0         0         0
         0         0         0         0         0         0         0         0
         0         0         0         0         0         0         0         0
         0         0         0         0         0         0         0         0
         0         0         0         0         0         0         0         0
         0         0         0         0         0         0         0         0
         0         0         0         0         0         0         0         0
         0         0         0         0         0         0         0         0
         0         0         0         0         0         0         0         0
         0         0         0         0         0         0         0         0
         0         0         0         0         0         0         0         0
         0         0         0         0         0         0         0         0
         0         0         0         0         0         0         0         0
         0         0         0         0         0         0         0         0
         0         0         0         0         0         0         0         0
         0         0         0         0         0         0         0         0
         0         0         0         0         0         0         0         0
         0         0         0         0         0         0         0         0
         0         0         0         0         0         0         0         0
         0         0         0         0         0         0         0         0
         0         0         0         0         0         0         0         0
         0         0         0         0         0         0         0         0
         0         0         0         0         0         0         0         0
         0         0         0         0         0         0         0         0
         0         0         0         0         0         0         0         0
         0         0         0         0         0         0         0         0
         0         0         0         0         0         0         0         0
         0         0         0         0         0         0         0         0
         0         0         0         0         0         0         0         0
         0         0         0         0         0         0         0         0
         0         0         0         0         0         0         0         0
         0         0         0         0         0         0         0         0
         0         0         0         0         0         0         0         0
         0         0         0         0         0         0         0         0
         0         0         0         0         0         0         0         0
         0         0         0         0         0         0         0         0
         0         0         0         0         0         0         0         0
         0         0         0         0         0         0         0         0
         0         0         0         0         0         0         0         0
         0         0         0         0         0         0         0         0
         0         0         0         0         0         0         0         0
         0         0         0         0         0         0         0         0
         0         0         0         0         0         0         0         0
         0         0         0         0         0         0         0         0
         0         0         0         0         0         0         0         0
         0         0         0         0         0         0         0         0
         0         0         0         0         0         0         0         0
         0         0         0         0         0         0         0         0
         0         0         0         0         0         0         0         0
         0         0         0         0         0         0         0         0
         0         0         0         0         0         0         0         0
         0         0         0         0         0         0         0         0
         0         0         0         0         0         0         0         0
         0         0         0         0         0         0         0         0
         0         0         0         0         0         0         0         0
         0         0         0         0         0         0         0         0
         0         0         0         0         0         0         0         0
         0         0         0         0         0         0         0         0
         0         0         0         0         0         0         0         0
         0         0         0         0         0         0         0         0
         0         0         0         0         0         0         0         0
         0         0         0         0         0         0         0         0
         0         0         0         0         0         0         0         0
         0         0         0         0         0         0         0         0
         0         0         0         0         0         0         0         0
         0         0         0         0         0         0         0         0
         0         0         0         0         0         0         0         0
         0         0         0         0         0         0         0         0
         0         0         0         0         0         0         0         0
         0         0         0         0         0         0         0         0
         0         0         0         0         0         0         0         0
         0         0         0         0         0         0         0         0
         0         0         0         0         0         0         0         0
         0         0         0         0         0         0         0         0
         0         0         0         0         0         0         0         0
         0         0         0         0         0         0         0         0
         0         0         0         0         0         0         0         0
         0         0         0         0         0         0         0         0
         0         0         0         0         0         0         0         0
         0         0         0         0         0         0         0         0
         0         0         0         0         0         0         0         0
         0         0         0         0         0         0         0         0
         0         0         0         0         0         0         0         0
         0         0         0         0         0         0         0         0
         0         0         0         0         0         0         0         0
         0         0         0         0         0         0         0         0
         0         0         0         0         0         0         0         0
         0         0         0         0         0         0         0         0
         0         0         0         0         0         0         0         0
         0         0         0         0         0         0         0         0
         0         0         0         0         0         0         0         0
         0         0         0         0         0         0         0         0
         0         0         0         0         0         0         0         0
         0         0         0         0         0         0         0         0
         0         0         0         0         0         0         0         0
         0         0         0         0         0         0         0         0
         0         0         0         0         0         0         0         0
         0         0         0         0         0         0         0         0
         0         0         0         0         0         0         0         0
         0         0         0         0         0         0         0         0
         0         0         0         0         0         0         0         0
         0         0         0         0         0         0         0         0
         0         0         0         0         0         0         0         0
         0         0         0         0         0         0         0         0
         0         0         0         0         0         0         0         0
         0         0         0         0         0         0         0         0
         0         0         0         0         0         0         0         0
         0         0         0         0         0         0         0         0
         0         0         0         0         0         0         0         0
         0         0         0         0         0         0         0         0
         0         0         0         0         0         0         0         0
         0         0         0         0         0         0         0         0
         0         0         0         0         0         0         0         0
         0         0         0         0         0         0         0         0
         0         0         0         0         0         0         0         0
         0         0         0         0         0         0         0         0
         0         0         0         0         0         0         0         0
         0         0         0         0         0         0         0         0
         0         0         0         0         0         0         0         0
         0         0         0         0         0         0         0         0
         0         0         0         0         0         0         0         0
         0         0         0         0         0         0         0         0
         0         0         0         0         0         0         0         0
         0         0         0         0         0         0         0         0
         0         0         0         0         0         0         0         0
         0         0         0         0         0         0         0         0
         0         0         0         0         0         0         0         0
         0         0         0         0         0         0         0         0
         0         0         0         0         0         0         0         0
         0         0         0         0         0         0         0         0
         0         0         0         0         0         0         0         0
         0         0         0         0         0         0         0         0
         0         0         0         0         0         0         0         0
         0         0         0         0         0         0         0         0
         0         0         0         0         0         0         0         0
         0         0         0         0         0         0         0         0
         0         0         0         0         0         0         0         0
         0         0         0         0         0         0         0         0
         0         0         0         0         0         0         0         0
         0         0         0         0         0         0         0         0
         0         0         0         0         0         0         0         0
         0         0         0         0         0         0         0         0
         0         0         0         0         0         0         0         0
         0         0         0         0         0         0         0         0
         0         0         0         0         0         0         0         0
         0         0         0         0         0         0         0         0
         0         0         0         0         0         0         0         0
         0         0         0         0         0         0         0         0
         0         0         0         0         0         0         0         0
         0         0         0         0         0         0         0         0
         0         0         0         0         0         0         0         0
         0         0         0         0         0         0         0         0
         0         0         0         0         0         0         0         0
         0         0         0         0         0         0         0         0
         0         0         0         0         0         0         0         0
         0         0         0         0         0         0         0         0
         0         0         0         0         0         0         0         0
         0         0         0         0         0         0         0         0
         0         0         0         0         0         0         0         0
         0         0         0         0         0         0         0         0
         0         0         0         0         0         0         0         0
         0         0         0         0         0         0         0         0
         0         0         0         0         0         0         0         0
         0         0         0         0         0         0         0         0
         0         0         0         0         0         0         0         0
         0         0         0         0         0         0         0         0
         0         0         0         0         0         0         0         0
         0         0         0         0         0         0         0         0
         0         0         0         0         0         0         0         0
         0         0         0         0         0         0         0         0
         0         0         0         0         0         0         0         0
         0         0         0         0         0         0         0         0
         0         0         0         0         0         0         0         0
         0         0         0         0         0         0         0         0
         0         0         0         0         0         0         0         0
         0         0         0         0         0         0         0         0
         0         0         0         0         0         0         0         0
         0         0         0         0         0         0         0         0
         0         0         0         0         0         0         0         0
         0         0         0         0         0         0         0         0
         0         0         0         0         0         0         0         0
         0         0         0         0         0         0         0         0
         0         0         0         0         0         0         0         0
         0         0         0         0         0         0         0         0
         0         0         0         0         0         0         0         0
         0         0         0         0         0         0         0         0
         0         0         0         0         0         0         0         0
         0         0         0         0         0         0         0         0
         0         0         0         0         0         0         0         0
         0         0         0         0         0         0         0         0
         0         0         0         0         0         0         0         0
         0         0         0         0         0         0         0         0
         0         0         0         0         0         0         0         0
         0         0         0         0         0         0         0         0
         0         0         0         0         0         0         0         0
         0         0         0         0         0         0         0         0
         0         0         0         0         0         0         0         0
         0         0         0         0         0         0         0         0
         0         0         0         0         0         0         0         0
         0         0         0         0         0         0         0         0
         0         0         0         0         0         0         0         0
         0         0         0         0         0         0         0         0
         0         0         0         0         0         0         0         0
         0         0         0         0         0         0         0         0
         0         0         0         0         0         0         0         0
         0         0         0         0         0         0         0         0
         0         0         0         0         0         0         0         0
         0         0         0         0         0         0         0         0
         0         0         0         0         0         0         0         0
         0         0         0         0         0         0         0         0
         0         0         0         0         0         0         0         0
         0         0         0         0         0         0         0         0
         0         0         0         0         0         0         0         0
         0         0         0         0         0         0         0         0
         0         0         0         0         0         0         0         0
         0         0         0         0         0         0         0         0
         0         0         0         0         0         0         0         0
         0         0         0         0         0         0         0         0
         0         0         0         0         0         0         0         0
         0         0         0         0         0         0         0         0
         0         0         0         0         0         0         0         0
         0         0         0         0         0         0         0         0
         0         0         0         0         0         0         0         0
         0         0         0         0         0         0         0         0
         0         0         0         0         0         0         0         0
         0         0         0         0         0         0         0         0
         0         0         0         0         0         0         0         0
         0         0         0         0         0         0         0         0
         0         0         0         0         0         0         0         0
         0         0         0         0         0         0         0         0
         0         0         0         0         0         0         0         0
         0         0         0         0         0         0         0         0
         0         0         0         0         0         0         0         0
         0         0         0         0         0         0         0         0
         0         0         0         0         0         0         0         0
         0         0         0         0         0         0         0         0
         0         0         0         0         0         0         0         0
         0         0         0         0         0         0         0         0
         0         0         0         0         0         0         0         0
         0         0         0         0         0         0         0         0
         0         0         0         0         0         0         0         0
         0         0         0         0         0         0         0         0
         0         0         0         0         0         0         0         0
         0         0         0         0         0         0         0         0
         0         0         0         0         0         0         0         0
         0         0         0         0         0         0         0         0
         0         0         0         0         0         0         0         0
         0         0         0         0         0         0         0         0
         0         0         0         0         0         0         0         0
         0         0         0         0         0         0         0         0
         0         0         0         0         0         0         0         0
         0         0         0         0         0         0         0         0
         0         0         0         0         0         0         0         0
         0         0         0         0         0         0         0         0
         0         0         0         0         0         0         0         0
         0         0         0         0         0         0         0         0
         0         0         0         0         0         0         0         0
         0         0         0         0         0         0         0         0
         0         0         0         0         0         0         0         0
         0         0         0         0         0         0         0         0
         0         0         0         0         0         0         0         0
         0         0         0         0         0         0         0         0
         0         0         0         0         0         0         0         0
         0         0         0         0         0         0         0         0
         0         0         0         0         0         0         0         0
         0         0         0         0         0         0         0         0
         0         0         0         0         0         0         0         0
         0         0         0         0         0         0         0         0
         0         0         0         0         0         0         0         0
         0         0         0         0         0         0         0         0
         0         0         0         0         0         0         0         0
         0         0         0         0         0         0         0         0
         0         0         0         0         0         0         0         0
         0         0         0         0         0         0         0         0
         0         0         0         0         0         0         0         0
         0         0         0         0         0         0         0         0
         0         0         0         0         0         0         0         0
         0         0         0         0         0         0         0         0
         0         0         0         0         0         0         0         0
         0         0         0         0         0         0         0         0
         0         0         0         0         0         0         0         0
         0         0         0         0         0         0         0         0
         0         0         0         0         0         0         0         0
         0         0         0         0         0         0         0         0
         0         0         0         0         0         0         0         0
         0         0         0         0         0         0         0         0
         0         0         0         0         0         0         0         0
         0         0         0         0         0         0         0         0
         0         0         0         0         0         0         0         0
         0         0         0         0         0         0         0         0
         0         0         0         0         0         0         0         0
         0         0         0         0         0         0         0         0
         0         0         0         0         0         0         0         0
         0         0         0         0         0         0         0         0
         0         0         0         0         0         0         0         0
         0         0         0         0         0         0         0         0
         0         0         0         0         0         0         0         0
         0         0         0         0         0         0         0         0
         0         0         0         0         0         0         0         0
         0         0         0         0         0         0         0         0
         0         0         0         0         0         0         0         0
         0         0         0         0         0         0         0         0
         0         0         0         0         0         0         0         0
         0         0         0         0         0         0         0         0
         0         0         0         0         0         0         0         0
         0         0         0         0         0         0         0         0
         0         0         0         0         0         0         0         0
         0         0         0         0         0         0         0         0
         0         0         0         0         0         0         0         0
         0         0         0         0         0         0         0         0
         0         0         0         0         0         0         0         0
         0         0         0         0         0         0         0         0
         0         0         0         0         0         0         0         0
         0         0         0         0         0         0         0         0
         0         0         0         0         0         0         0         0
         0         0         0         0         0         0         0         0
         0         0         0         0         0         0         0         0
         0         0         0         0         0         0         0         0
         0         0         0         0         0         0         0         0
         0         0         0         0         0         0         0         0
         0         0         0         0         0         0         0         0
         0         0         0         0         0         0         0         0
         0         0         0         0         0         0         0         0
         0         0         0         0         0         0         0         0
         0         0         0         0         0         0         0         0
         0         0         0         0         0         0         0         0
         0         0         0         0         0         0         0         0
         0         0         0         0         0         0         0         0
         0         0         0         0         0         0         0         0
         0         0         0         0         0         0         0         0
         0         0         0         0         0         0         0         0
         0         0         0         0         0         0         0         0
         0         0         0         0         0         0         0         0
         0         0         0         0         0         0         0         0
         0         0         0         0         0         0         0         0
         0         0         0         0         0         0         0         0
         0         0         0         0         0         0         0         0
         0         0         0         0         0         0         0         0
         0         0         0         0         0         0         0         0
         0         0         0         0         0         0         0         0
         0         0         0         0         0         0         0         0
         0         0         0         0         0         0         0         0
         0         0         0         0         0         0         0         0
         0         0         0         0         0         0         0         0
         0         0         0         0         0         0         0         0
         0         0         0         0         0         0         0         0
         0         0         0         0         0         0         0         0
         0         0         0         0         0         0         0         0
         0         0         0         0         0         0         0         0
         0         0         0         0         0         0         0         0
         0         0         0         0         0         0         0         0
         0         0         0         0         0         0         0         0
         0         0         0         0         0         0         0         0
         0         0         0         0         0         0         0         0
         0         0         0         0         0         0         0         0
         0         0         0         0         0         0         0         0
         0         0         0         0         0         0         0         0
         0         0         0         0         0         0         0         0
         0         0         0         0         0         0         0         0
         0         0         0         0         0         0         0         0
         0         0         0         0         0         0         0         0
         0         0         0         0         0         0         0         0
         0         0         0         0         0         0         0         0
         0         0         0         0         0         0         0         0
         0         0         0         0         0         0         0         0
         0         0         0         0         0         0         0         0
         0         0         0         0         0         0         0         0
         0         0         0         0         0         0         0         0
         0         0         0         0         0         0         0         0
         0         0         0         0         0         0         0         0
         0         0         0         0         0         0         0         0
         0         0         0         0         0         0         0         0
         0         0         0         0         0         0         0         0
         0         0         0         0         0         0         0         0
         0         0         0         0         0         0         0         0
         0         0         0         0         0         0         0         0
         0         0         0         0         0         0         0         0
         0         0         0         0         0         0         0         0
         0         0         0         0         0         0         0         0
         0         0         0         0         0         0         0         0
         0         0         0         0         0         0         0         0
         0         0         0         0         0         0         0         0
         0         0         0         0         0         0         0         0
         0         0         0         0         0         0         0         0
         0         0         0         0         0         0         0         0
         0         0         0         0         0         0         0         0
         0         0         0         0         0         0         0         0
         0         0         0         0         0         0         0         0
         0         0         0         0         0         0         0         0
         0         0         0         0         0         0         0         0
         0         0         0         0         0         0         0         0
         0         0         0         0         0         0         0         0
         0         0         0         0         0         0         0         0
         0         0         0         0         0         0         0         0
         0         0         0         0         0         0         0         0
         0         0         0         0         0         0         0         0
         0         0         0         0         0         0         0         0
         0         0         0         0         0         0         0         0
         0         0         0         0         0         0         0         0
         0         0         0         0         0         0         0         0
         0         0         0         0         0         0         0         0
         0         0         0         0         0         0         0         0
         0         0         0         0         0         0         0         0
         0         0         0         0         0         0         0         0
         0         0         0         0         0         0         0         0
         0         0         0         0         0         0         0         0
         0         0         0         0         0         0         0         0
         0         0         0         0         0         0         0         0
         0         0         0         0         0         0         0         0
         0         0         0         0         0         0         0         0
         0         0         0         0         0         0         0         0
         0         0         0         0         0         0         0         0
         0         0         0         0         0         0         0         0
         0         0         0         0         0         0         0         0
         0         0         0         0         0         0         0         0
         0         0         0         0         0         0         0         0
         0         0         0         0         0         0         0         0
         0         0         0         0         0         0         0         0
         0         0         0         0         0         0         0         0
         0         0         0         0         0         0         0         0
         0         0         0         0         0         0         0         0
         0         0         0         0         0         0         0         0
         0         0         0         0         0         0         0         0
         0         0         0         0         0         0         0         0
         0         0         0         0         0         0         0         0
         0         0         0         0         0         0         0         0
         0         0         0         0         0         0         0         0
         0         0         0         0         0         0         0         0
         0         0         0         0         0         0         0         0
         0         0         0         0         0         0         0         0
         0         0         0         0         0         0         0         0
         0         0         0         0         0         0         0         0
         0         0         0         0         0         0         0         0
         0         0         0         0         0         0         0         0
         0         0         0         0         0         0         0         0
         0         0         0         0         0         0         0         0
         0         0         0         0         0         0         0         0
         0         0         0         0         0         0         0         0
         0         0         0         0         0         0         0         0
         0         0         0         0         0         0         0         0
         0         0         0         0         0         0         0         0
         0         0         0         0         0         0         0         0
         0         0         0         0         0         0         0         0
         0         0         0         0         0         0         0         0
         0         0         0         0         0         0         0         0
         0         0         0         0         0         0         0         0
         0         0         0         0         0         0         0         0
         0         0         0         0         0         0         0         0
         0         0         0         0         0         0         0         0
         0         0         0         0         0         0         0         0
         0         0         0         0         0         0         0         0
         0         0         0         0         0         0         0         0
         0         0         0         0         0         0         0         0
         0         0         0         0         0         0         0         0
         0         0         0         0         0         0         0         0
         0         0         0         0         0         0         0         0
         0         0         0         0         0         0         0         0
         0         0         0         0         0         0         0         0
         0         0         0         0         0         0         0         0
         0         0         0         0         0         0         0         0
         0         0         0         0         0         0         0         0
         0         0         0         0         0         0         0         0
         0         0         0         0         0         0         0         0
         0         0         0         0         0         0         0         0
         0         0         0         0         0         0         0         0
         0         0         0         0         0         0         0         0
         0         0         0         0         0         0         0         0
         0         0         0         0         0         0         0         0
         0         0         0         0         0         0         0         0
         0         0         0         0         0         0         0         0
         0         0         0         0         0         0         0         0
         0         0         0         0         0         0         0         0
         0         0         0         0         0         0         0         0
         0         0         0         0         0         0         0         0
         0         0         0         0         0         0         0         0
         0         0         0         0         0         0         0         0
         0         0         0         0         0         0         0         0
         0         0         0         0         0         0         0         0
         0         0         0         0         0         0         0         0
         0         0         0         0         0         0         0         0
         0         0         0         0         0         0         0         0
         0         0         0         0         0         0         0         0
         0         0         0         0         0         0         0         0
         0         0         0         0         0         0         0         0
         0         0         0         0         0         0         0         0
         0         0         0         0         0         0         0         0
         0         0         0         0         0         0         0         0
         0         0         0         0         0         0         0         0
         0         0         0         0         0         0         0         0
         0         0         0         0         0         0         0         0
         0         0         0         0         0         0         0         0
         0         0         0         0         0         0         0         0
         0         0         0         0         0         0         0         0
         0         0         0         0         0         0         0         0
         0         0         0         0         0         0         0         0
         0         0         0         0         0         0         0         0
         0         0         0         0         0         0         0         0
         0         0         0         0         0         0         0         0
         0         0         0         0         0         0         0         0
         0         0         0         0         0         0         0         0
         0         0         0         0         0         0         0         0
         0         0         0         0         0         0         0         0
         0         0         0         0         0         0         0         0
         0         0         0         0         0         0         0         0
         0         0         0         0         0         0         0         0
         0         0         0         0         0         0         0         0
         0         0         0         0         0         0         0         0
         0         0         0         0         0         0         0         0
         0         0         0         0         0         0         0         0
         0         0         0         0         0         0         0         0
         0         0         0         0         0         0         0         0
         0         0         0         0         0         0         0         0
         0         0         0         0         0         0         0         0
         0         0         0         0         0         0         0         0
         0         0         0         0         0         0         0         0
         0         0         0         0         0         0         0         0
         0         0         0         0         0         0         0         0
         0         0         0         0         0         0         0         0
         0         0         0         0         0         0         0         0
         0         0         0         0         0         0         0         0
         0         0         0         0         0         0         0         0
         0         0         0         0         0         0         0         0
         0         0         0         0         0         0         0         0
         0         0         0         0         0         0         0         0
         0         0         0         0         0         0         0         0
         0         0         0         0         0         0         0         0
         0         0         0         0         0         0         0         0
         0         0         0         0         0         0         0         0
         0         0         0         0         0         0         0         0
         0         0         0         0         0         0         0         0
         0         0         0         0         0         0         0         0
         0         0         0         0         0         0         0         0
         0         0         0         0         0         0         0         0
         0         0         0         0         0         0         0         0
         0         0         0         0         0         0         0         0
         0         0         0         0         0         0         0         0
         0         0         0         0         0         0         0         0
         0         0         0         0         0         0         0         0
         0         0         0         0         0         0         0         0
         0         0         0         0         0         0         0         0
         0         0         0         0         0         0         0         0
         0         0         0         0         0         0         0         0
         0         0         0         0         0         0         0         0
         0         0         0         0         0         0         0         0
         0         0         0         0         0         0         0         0
         0         0         0         0         0         0         0         0
         0         0         0         0         0         0         0         0
         0         0         0         0         0         0         0         0
         0         0         0         0         0         0         0         0
         0         0         0         0         0         0         0         0
         0         0         0         0         0         0         0         0
         0         0         0         0         0         0         0         0
         0         0         0         0         0         0         0         0
         0         0         0         0         0         0         0         0
         0         0         0         0         0         0         0         0
         0         0         0         0         0         0         0         0
         0         0         0         0         0         0         0         0
         0         0         0         0         0         0         0         0
         0         0         0         0         0         0         0         0
         0         0         0         0         0         0         0         0
         0         0         0         0         0         0         0         0
         0         0         0         0         0         0         0         0
         0         0         0         0         0         0         0         0
         0         0         0         0         0         0         0         0
         0         0         0         0         0         0         0         0
         0         0         0         0         0         0         0         0
         0         0         0         0         0         0         0         0
         0         0         0         0         0         0         0         0
         0         0         0         0         0         0         0         0
         0         0         0         0         0         0         0         0
         0         0         0         0         0         0         0         0
         0         0         0         0         0         0         0         0
         0         0         0         0         0         0         0         0
         0         0         0         0         0         0         0         0
         0         0         0         0         0         0         0         0
         0         0         0         0         0         0         0         0
         0         0         0         0         0         0         0         0
         0         0         0         0         0         0         0         0
         0         0         0         0         0         0         0         0
         0         0         0         0         0         0         0         0
         0         0         0         0         0         0         0         0
         0         0         0         0         0         0         0         0
         0         0         0         0         0         0         0         0
         0         0         0         0         0         0         0         0
         0         0         0         0         0         0         0         0
         0         0         0         0         0         0         0         0
         0         0         0         0         0         0         0         0
         0         0         0         0         0         0         0         0
         0         0         0         0         0         0         0         0
         0         0         0         0         0         0         0         0
         0         0         0         0         0         0         0         0
         0         0         0         0         0         0         0         0
         0         0         0         0         0         0         0         0
         0         0         0         0         0         0         0         0
         0         0         0         0         0         0         0         0
         0         0         0         0         0         0         0         0
         0         0         0         0         0         0         0         0
         0         0         0         0         0         0         0         0
         0         0         0         0         0         0         0         0
         0         0         0         0         0         0         0         0
         0         0         0         0         0         0         0         0
         0         0         0         0         0         0         0         0
         0         0         0         0         0         0         0         0
         0         0         0         0         0         0         0         0
         0         0         0         0         0         0         0         0
         0         0         0         0         0         0         0         0
         0         0         0         0         0         0         0         0
         0         0         0         0         0         0         0         0
         0         0         0         0         0         0         0         0
         0         0         0         0         0         0         0         0
         0         0         0         0         0         0         0         0
         0         0         0         0         0         0         0         0
         0         0         0         0         0         0         0         0
         0         0         0         0         0         0         0         0
         0         0         0         0         0         0         0         0
         0         0         0         0         0         0         0         0
         0         0         0         0         0         0         0         0
         0         0         0         0         0         0         0         0
         0         0         0         0         0         0         0         0
         0         0         0         0         0         0         0         0
         0         0         0         0         0         0         0         0
         0         0         0         0         0         0         0         0
         0         0         0         0         0         0         0         0
         0         0         0         0         0         0         0         0
         0         0         0         0         0         0         0         0
         0         0         0         0         0         0         0         0
         0         0         0         0         0         0         0         0
         0         0         0         0         0         0         0         0
         0         0         0         0         0         0         0         0
         0         0         0         0         0         0         0         0
         0         0         0         0         0         0         0         0
         0         0         0         0         0         0         0         0
         0         0         0         0         0         0         0         0
         0         0         0         0         0         0         0         0
         0         0         0         0         0         0         0         0
         0         0         0         0         0         0         0         0
         0         0         0         0         0         0         0         0
         0         0         0         0         0         0         0         0
         0         0         0         0         0         0         0         0
         0         0         0         0         0         0         0         0
         0         0         0         0         0         0         0         0
         0         0         0         0         0         0         0         0
         0         0         0         0         0         0         0         0
         0         0         0         0         0         0         0         0
         0         0         0         0         0         0         0         0
         0         0         0         0         0         0         0         0
         0         0         0         0         0         0         0         0
         0         0         0         0         0         0         0         0
         0         0         0         0         0         0         0         0
         0         0         0         0         0         0         0         0
         0         0         0         0         0         0         0         0
         0         0         0         0         0         0         0         0
         0         0         0         0         0         0         0         0
         0         0         0         0         0         0         0         0
         0         0         0         0         0         0         0         0
         0         0         0         0         0         0         0         0
         0         0         0         0         0         0         0         0
         0         0         0         0         0         0         0         0
         0         0         0         0         0         0         0         0
         0         0         0         0         0         0         0         0
         0         0         0         0         0         0         0         0
         0         0         0         0         0         0         0         0
         0         0         0         0         0         0         0         0
         0         0         0         0         0         0         0         0
         0         0         0         0         0         0         0         0
         0         0         0         0         0         0         0         0
         0         0         0         0         0         0         0         0
         0         0         0         0         0         0         0         0
         0         0         0         0         0         0         0         0
         0         0         0         0         0         0         0         0
         0         0         0         0         0         0         0         0
         0         0         0         0         0         0         0         0
         0         0         0         0         0         0         0         0
         0         0         0         0         0         0         0         0
         0         0         0         0         0         0         0         0
         0         0         0         0         0         0         0         0
         0         0         0         0         0         0         0         0
         0         0         0         0         0         0         0         0
         0         0         0         0         0         0         0         0
         0         0         0         0         0         0         0         0
         0         0         0         0         0         0         0         0
         0         0         0         0         0         0         0         0
         0         0         0         0         0         0         0         0
         0         0         0         0         0         0         0         0
         0         0         0         0         0         0         0         0
         0         0         0         0         0         0         0         0
         0         0         0         0         0         0         0         0
         0         0         0         0         0         0         0         0
         0         0         0         0         0         0         0         0
         0         0         0         0         0         0         0         0
         0         0         0         0         0         0         0         0
         0         0         0         0         0         0         0         0
         0         0         0         0         0         0         0         0
         0         0         0         0         0         0         0         0
         0         0         0         0         0         0         0         0
         0         0         0         0         0         0         0         0
         0         0         0         0         0         0         0         0
         0         0         0         0         0         0         0         0
         0         0         0         0         0         0         0         0
         0         0         0         0         0         0         0         0
         0         0         0         0         0         0         0         0
         0         0         0         0         0         0         0         0
         0         0         0         0         0         0         0         0
         0         0         0         0         0         0         0         0
         0         0         0         0         0         0         0         0
         0         0         0         0         0         0         0         0
         0         0         0         0         0         0         0         0
         0         0         0         0         0         0         0         0
         0         0         0         0         0         0         0         0
         0         0         0         0         0         0         0         0
         0         0         0         0         0         0         0         0
         0         0         0         0         0         0         0         0
         0         0         0         0         0         0         0         0
         0         0         0         0         0         0         0         0
         0         0         0         0         0         0         0         0
         0         0         0         0         0         0         0         0
         0         0         0         0         0         0         0         0
         0         0         0         0         0         0         0         0
         0         0         0         0         0         0         0         0
         0         0         0         0         0         0         0         0
         0         0         0         0         0         0         0         0
         0         0         0         0         0         0         0         0
         0         0         0         0         0         0         0         0
         0         0         0         0         0         0         0         0
         0         0         0         0         0         0         0         0
         0         0         0         0         0         0         0         0
         0         0         0         0         0         0         0         0
         0         0         0         0         0         0         0         0
         0         0         0         0         0         0         0         0
         0         0         0         0         0         0         0         0
         0         0         0         0         0         0         0         0
         0         0         0         0         0         0         0         0
         0         0         0         0         0         0         0         0
         0         0         0         0         0         0         0         0
         0         0         0         0         0         0         0         0
         0         0         0         0         0         0         0         0
         0         0         0         0         0         0         0         0
         0         0         0         0         0         0         0         0
         0         0         0         0         0         0         0         0
         0         0         0         0         0         0         0         0
         0         0         0         0         0         0         0         0
         0         0         0         0         0         0         0         0
         0         0         0         0         0         0         0         0
         0         0         0         0         0         0         0         0
         0         0         0         0         0         0         0         0
         0         0         0         0         0         0         0         0
         0         0         0         0         0         0         0         0
         0         0         0         0         0         0         0         0
         0         0         0         0         0         0         0         0
         0         0         0         0         0         0         0         0
         0         0         0         0         0         0         0         0
         0         0         0         0         0         0         0         0
         0         0         0         0         0         0         0         0
         0         0         0         0         0         0         0         0
         0         0         0         0         0         0         0         0
         0         0         0         0         0         0         0         0
         0         0         0         0         0         0         0         0
         0         0         0         0         0         0         0         0
         0         0         0         0         0         0         0         0
         0         0         0         0         0         0         0         0
         0         0         0         0         0         0         0         0
         0         0         0         0         0         0         0         0
         0         0         0         0         0         0         0         0
         0         0         0         0         0         0         0         0
         0         0         0         0         0         0         0         0
         0         0         0         0         0         0         0         0
         0         0         0         0         0         0         0         0
         0         0         0         0         0         0         0         0
         0         0         0         0         0         0         0         0
         0         0         0         0         0         0         0         0
         0         0         0         0         0         0         0         0
         0         0         0         0         0         0         0         0
         0         0         0         0         0         0         0         0
         0         0         0         0         0         0         0         0
         0         0         0         0         0         0         0         0
         0         0         0         0         0         0         0         0
         0         0         0         0         0         0         0         0
         0         0         0         0         0         0         0         0
         0         0         0         0         0         0         0         0
         0         0         0         0         0         0         0         0
         0         0         0         0         0         0         0         0
         0         0         0         0         0         0         0         0
         0         0         0         0         0         0         0         0
         0         0         0         0         0         0         0         0
         0         0         0         0         0         0         0         0
         0         0         0         0         0         0         0         0
         0         0         0         0         0         0         0         0
         0         0         0         0         0         0         0         0
         0         0         0         0         0         0         0         0
         0         0         0         0         0         0         0         0
         0         0         0         0         0         0         0         0
         0         0         0         0         0         0         0         0
         0         0         0         0         0         0         0         0
         0         0         0         0         0         0         0         0
         0         0         0         0         0         0         0         0
         0         0         0         0         0         0         0         0
         0         0         0         0         0         0         0         0
         0         0         0         0         0         0         0         0
         0         0         0         0         0         0         0         0
         0         0         0         0         0         0         0         0
         0         0         0         0         0         0         0         0
         0         0         0         0         0         0         0         0
         0         0         0         0         0         0         0         0
         0         0         0         0         0         0         0         0
         0         0         0         0         0         0         0         0
         0         0         0         0         0         0         0         0
         0         0         0         0         0         0         0         0
         0         0         0         0         0         0         0         0
         0         0         0         0         0         0         0         0
         0         0         0         0         0         0         0         0
         0         0         0         0         0         0         0         0
         0         0         0         0         0         0         0         0
         0         0         0         0         0         0         0         0
         0         0         0         0         0         0         0         0
         0         0         0         0         0         0         0         0
         0         0         0         0         0         0         0         0
         0         0         0         0         0         0         0         0
         0         0         0         0         0         0         0         0
         0         0         0         0         0         0         0         0
         0         0         0         0         0         0         0         0
         0         0         0         0         0         0         0         0
         0         0         0         0         0         0         0         0
         0         0         0         0         0         0         0         0
         0         0         0         0         0         0         0         0
         0         0         0         0         0         0         0         0
         0         0         0         0         0         0         0         0
         0         0         0         0         0         0         0         0
         0         0         0         0         0         0         0         0
         0         0         0         0         0         0         0         0
         0         0         0         0         0         0         0         0
         0         0         0         0         0         0         0         0
         0         0         0         0         0         0         0         0
         0         0         0         0         0         0         0         0
         0         0         0         0         0         0         0         0
         0         0         0         0         0         0         0         0
         0         0         0         0         0         0         0         0
         0         0         0         0         0         0         0         0
         0         0         0         0         0         0         0         0
         0         0         0         0         0         0         0         0
         0         0         0         0         0         0         0         0
         0         0         0         0         0         0         0         0
         0         0         0         0         0         0         0         0
         0         0         0         0         0         0         0         0
         0         0         0         0         0         0         0         0
         0         0         0         0         0         0         0         0
         0         0         0         0         0         0         0         0
         0         0         0         0         0         0         0         0
         0         0         0         0         0         0         0         0
         0         0         0         0         0         0         0         0
         0         0         0         0         0         0         0         0
         0         0         0         0         0         0         0         0
         0         0         0         0         0         0         0         0
         0         0         0         0         0         0         0         0
         0         0         0         0         0         0         0         0
         0         0         0         0         0         0         0         0
         0         0         0         0         0         0         0         0
         0         0         0         0         0         0         0         0
         0         0         0         0         0         0         0         0
         0         0         0         0         0         0         0         0
         0         0         0         0         0         0         0         0
         0         0         0         0         0         0         0         0
         0         0         0         0         0         0         0         0
         0         0         0         0         0         0         0         0
         0         0         0         0         0         0         0         0
         0         0         0         0         0         0         0         0
         0         0         0         0         0         0         0         0
         0         0         0         0         0         0         0         0
         0         0         0         0         0         0         0         0
         0         0         0         0         0         0         0         0
         0         0         0         0         0         0         0         0
         0         0         0         0         0         0         0         0
         0         0         0         0         0         0         0         0
         0         0         0         0         0         0         0         0
         0         0         0         0         0         0         0         0
         0         0         0         0         0         0         0         0
         0         0         0         0         0         0         0         0
         0         0         0         0         0         0         0         0
         0         0         0         0         0         0         0         0
         0         0         0         0         0         0         0         0
         0         0         0         0         0         0         0         0
         0         0         0         0         0         0         0         0
         0         0         0         0         0         0         0         0
         0         0         0         0         0         0         0         0
         0         0         0         0         0         0         0         0
         0         0         0         0         0         0         0         0
         0         0         0         0         0         0         0         0
         0         0         0         0         0         0         0         0
         0         0         0         0         0         0         0         0
         0         0         0         0         0         0         0         0
         0         0         0         0         0         0         0         0
         0         0         0         0         0         0         0         0
         0         0         0         0         0         0         0         0
         0         0         0         0         0         0         0         0
         0         0         0         0         0         0         0         0
         0         0         0         0         0         0         0         0
         0         0         0         0         0         0         0         0
         0         0         0         0         0         0         0         0
         0         0         0         0         0         0         0         0
         0         0         0         0         0         0         0         0
         0         0         0         0         0         0         0         0
         0         0         0         0         0         0         0         0
         0         0         0         0         0         0         0         0
         0         0         0         0         0         0         0         0
         0         0         0         0         0         0         0         0
         0         0         0         0         0         0         0         0
         0         0         0         0         0         0         0         0
         0         0         0         0         0         0         0         0
         0         0         0         0         0         0         0         0
         0         0         0         0         0         0         0         0
         0         0         0         0         0         0         0         0
         0         0         0         0         0         0         0         0
         0         0         0         0         0         0         0         0
         0         0         0         0         0         0         0         0
         0         0         0         0         0         0         0         0
         0         0         0         0         0         0         0         0
         0         0         0         0         0         0         0         0
         0         0         0         0         0         0         0         0
         0         0         0         0         0         0         0         0
         0         0         0         0         0         0         0         0
         0         0         0         0         0         0         0         0
         0         0         0         0         0         0         0         0
         0         0         0         0         0         0         0         0
         0         0         0         0         0         0         0         0
         0         0         0         0         0         0         0         0
         0         0         0         0         0         0         0         0
         0         0         0         0         0         0         0         0
         0         0         0         0         0         0         0         0
         0         0         0         0         0         0         0         0
         0         0         0         0         0         0         0         0
         0         0         0         0         0         0         0         0
         0         0         0         0         0         0         0         0
         0         0         0         0         0         0         0         0
         0         0         0         0         0         0         0         0
         0         0         0         0         0         0         0         0
         0         0         0         0         0         0         0         0
         0         0         0         0         0         0         0         0
         0         0         0         0         0         0         0         0
         0         0         0         0         0         0         0         0
         0         0         0         0         0         0         0         0
         0         0         0         0         0         0         0         0
         0         0         0         0         0         0         0         0
         0         0         0         0         0         0         0         0
         0         0         0         0         0         0         0         0
         0         0         0         0         0         0         0         0
         0         0         0         0         0         0         0         0
         0         0         0         0         0         0         0         0
         0         0         0         0         0         0         0         0
         0         0         0         0         0         0         0         0
         0         0         0         0         0         0         0         0
         0         0         0         0         0         0         0         0
         0         0         0         0         0         0         0         0
         0         0         0         0         0         0         0         0
         0         0         0         0         0         0         0         0
         0         0         0         0         0         0         0         0
         0         0         0         0         0         0         0         0
         0         0         0         0         0         0         0         0
         0         0         0         0         0         0         0         0
         0         0         0         0         0         0         0         0
         0         0         0         0         0         0         0         0
         0         0         0         0         0         0         0         0
         0         0         0         0         0         0         0         0
         0         0         0         0         0         0         0         0
         0         0         0         0         0         0         0         0
         0         0         0         0         0         0         0         0
         0         0         0         0         0         0         0         0
         0         0         0         0         0         0         0         0
         0         0         0         0         0         0         0         0
         0         0         0         0         0         0         0         0
         0         0         0         0         0         0         0         0
         0         0         0         0         0         0         0         0
         0         0         0         0         0         0         0         0
         0         0         0         0         0         0         0         0
         0         0         0         0         0         0         0         0
         0         0         0         0         0         0         0         0
         0         0         0         0         0         0         0         0
         0         0         0         0         0         0         0         0
         0         0         0         0         0         0         0         0
         0         0         0         0         0         0         0         0
         0         0         0         0         0         0         0         0
         0         0         0         0         0         0         0         0
         0         0         0         0         0         0         0         0
         0         0         0         0         0         0         0         0
         0         0         0         0         0         0         0         0
         0         0         0         0         0         0         0         0
         0         0         0         0         0         0         0         0
         0         0         0         0         0         0         0         0
         0         0         0         0         0         0         0         0
         0         0         0         0         0         0         0         0
         0         0         0         0         0         0         0         0
         0         0         0         0         0         0         0         0
         0         0         0         0         0         0         0         0
         0         0         0         0         0         0         0         0
         0         0         0         0         0         0         0         0
         0         0         0         0         0         0         0         0
         0         0         0         0         0         0         0         0
         0         0         0         0         0         0         0         0
         0         0         0         0         0         0         0         0
         0         0         0         0         0         0         0         0
         0         0         0         0         0         0         0         0
         0         0         0         0         0         0         0         0
         0         0         0         0         0         0         0         0
         0         0         0         0         0         0         0         0
         0         0         0         0         0         0         0         0
         0         0         0         0         0         0         0         0
         0         0         0         0         0         0         0         0
         0         0         0         0         0         0         0         0
         0         0         0         0         0         0         0         0
         0         0         0         0         0         0         0         0
         0         0         0         0         0         0         0         0
         0         0         0         0         0         0         0         0
         0         0         0         0         0         0         0         0
         0         0         0         0         0         0         0         0
         0         0         0         0         0         0         0         0
         0         0         0         0         0         0         0         0
         0         0         0         0         0         0         0         0
         0         0         0         0         0         0         0         0
         0         0         0         0         0         0         0         0
         0         0         0         0         0         0         0         0
         0         0         0         0         0         0         0         0
         0         0         0         0         0         0         0         0
         0         0         0         0         0         0         0         0
         0         0         0         0         0         0         0         0
         0         0         0         0         0         0         0         0
         0         0         0         0         0         0         0         0
         0         0         0         0         0         0         0         0
         0         0         0         0         0         0         0         0
         0         0         0         0         0         0         0         0
         0         0         0         0         0         0         0         0
         0         0         0         0         0         0         0         0
         0         0         0         0         0         0         0         0
         0         0         0         0         0         0         0         0
         0         0         0         0         0         0         0         0
         0         0         0         0         0         0         0         0
         0         0         0         0         0         0         0         0
         0         0         0         0         0         0         0         0
         0         0         0         0         0         0         0         0
         0         0         0         0         0         0         0         0
         0         0         0         0         0         0         0         0
         0         0         0         0         0         0         0         0
         0         0         0         0         0         0         0         0
         0         0         0         0         0         0         0         0
         0         0         0         0         0         0         0         0
         0         0         0         0         0         0         0         0
         0         0         0         0         0         0         0         0
         0         0         0         0         0         0         0         0
         0         0         0         0         0         0         0         0
         0         0         0         0         0         0         0         0
         0         0         0         0         0         0         0         0
         0         0         0         0         0         0         0         0
         0         0         0         0         0         0         0         0
         0         0         0         0         0         0         0         0
         0         0         0         0         0         0         0         0
         0         0         0         0         0         0         0         0
         0         0         0         0         0         0         0         0
         0         0         0         0         0         0         0         0
         0         0         0         0         0         0         0         0
         0         0         0         0         0         0         0         0
         0         0         0         0         0         0         0         0
         0         0         0         0         0         0         0         0
         0         0         0         0         0         0         0         0
         0         0         0         0         0         0         0         0
         0         0         0         0         0         0         0         0
         0         0         0         0         0         0         0         0
         0         0         0         0         0         0         0         0
         0         0         0         0         0         0         0         0
         0         0         0         0         0         0         0         0
         0         0         0         0         0         0         0         0
         0         0         0         0         0         0         0         0
         0         0         0         0         0         0         0         0
         0         0         0         0         0         0         0         0
         0         0         0         0         0         0         0         0
         0         0         0         0         0         0         0         0
         0         0         0         0         0         0         0         0
         0         0         0         0         0         0         0         0
         0         0         0         0         0         0         0         0
         0         0         0         0         0         0         0         0
         0         0         0         0         0         0         0         0
         0         0         0         0         0         0         0         0
         0         0         0         0         0         0         0         0
         0         0         0         0         0         0         0         0
         0         0         0         0         0         0         0         0
         0         0         0         0         0         0         0         0
         0         0         0         0         0         0         0         0
         0         0         0         0         0         0         0         0
         0         0         0         0         0         0         0         0
         0         0         0         0         0         0         0         0
         0         0         0         0         0         0         0         0
         0         0         0         0         0         0         0         0
         0         0         0         0         0         0         0         0
         0         0         0         0         0         0         0         0
         0         0         0         0         0         0         0         0
         0         0         0         0         0         0         0         0
         0         0         0         0         0         0         0         0
         0         0         0         0         0         0         0         0
         0         0         0         0         0         0         0         0
         0         0         0         0         0         0         0         0
         0         0         0         0         0         0         0         0
         0         0         0         0         0         0         0         0
         0         0         0         0         0         0         0         0
         0         0         0         0         0         0         0         0
         0         0         0         0         0         0         0         0
         0         0         0         0         0         0         0         0
         0         0         0         0         0         0         0         0
         0         0         0         0         0         0         0         0
         0         0         0         0         0         0         0         0
         0         0         0         0         0         0         0         0
         0         0         0         0         0         0         0         0
         0         0         0         0         0         0         0         0
         0         0         0         0         0         0         0         0
         0         0         0         0         0         0         0         0
         0         0         0         0         0         0         0         0
         0         0         0         0         0         0         0         0
         0         0         0         0         0         0         0         0
         0         0         0         0         0         0         0         0
         0         0         0         0         0         0         0         0
         0         0         0         0         0         0         0         0
         0         0         0         0         0         0         0         0
         0         0         0         0         0         0         0         0
         0         0         0         0         0         0         0         0
         0         0         0         0         0         0         0         0
         0         0         0         0         0         0         0         0
         0         0         0         0         0         0         0         0
         0         0         0         0         0         0         0         0
         0         0         0         0         0         0         0         0
         0         0         0         0         0         0         0         0
         0         0         0         0         0         0         0         0
         0         0         0         0         0         0         0         0
         0         0         0         0         0         0         0         0
         0         0         0         0         0         0         0         0
         0         0         0         0         0         0         0         0
         0         0         0         0         0         0         0         0
         0         0         0         0         0         0         0         0
         0         0         0         0         0         0         0         0
         0         0         0         0         0         0         0         0
         0         0         0         0         0         0         0         0
         0         0         0         0         0         0         0         0
         0         0         0         0         0         0         0         0
         0         0         0         0         0         0         0         0
         0         0         0         0         0         0         0         0
         0         0         0         0         0         0         0         0
         0         0         0         0         0         0         0         0
         0         0         0         0         0         0         0         0
         0         0         0         0         0         0         0         0
         0         0         0         0         0         0         0         0
         0         0         0         0         0         0         0         0
         0         0         0         0         0         0         0         0
         0         0         0         0         0         0         0         0
         0         0         0         0         0         0         0         0
         0         0         0         0         0         0         0         0
         0         0         0         0         0         0         0         0
         0         0         0         0         0         0         0         0
         0         0         0         0         0         0         0         0
         0         0         0         0         0         0         0         0
         0         0         0         0         0         0         0         0
         0         0         0         0         0         0         0         0
         0         0         0         0         0         0         0         0
         0         0         0         0         0         0         0         0
         0         0         0         0         0         0         0         0
         0         0         0         0         0         0         0         0
         0         0         0         0         0         0         0         0
         0         0         0         0         0         0         0         0
         0         0         0         0         0         0         0         0
         0         0         0         0         0         0         0         0
         0         0         0         0         0         0         0         0
         0         0         0         0         0         0         0         0
         0         0         0         0         0         0         0         0
         0         0         0         0         0         0         0         0
         0         0         0         0         0         0         0         0
         0         0         0         0         0         0         0         0
         0         0         0         0         0         0         0         0
         0         0         0         0         0         0         0         0
         0         0         0         0         0         0         0         0
         0         0         0         0         0         0         0         0
         0         0         0         0         0         0         0         0
         0         0         0         0         0         0         0         0
         0         0         0         0         0         0         0         0
         0         0         0         0         0         0         0         0
         0         0         0         0         0         0         0         0
         0         0         0         0         0         0         0         0
         0         0         0         0         0         0         0         0
         0         0         0         0         0         0         0         0
         0         0         0         0         0         0         0         0
         0         0         0         0         0         0         0         0
         0         0         0         0         0         0         0         0
         0         0         0         0         0         0         0         0
         0         0         0         0         0         0         0         0
         0         0         0         0         0         0         0         0
         0         0         0         0         0         0         0         0
         0         0         0         0         0         0         0         0
         0         0         0         0         0         0         0         0
         0         0         0         0         0         0         0         0
         0         0         0         0         0         0         0         0
         0         0         0         0         0         0         0         0
         0         0         0         0         0         0         0         0
         0         0         0         0         0         0         0         0
         0         0         0         0         0         0         0         0
         0         0         0         0         0         0         0         0
         0         0         0         0         0         0         0         0
         0         0         0         0         0         0         0         0
         0         0         0         0         0         0         0         0
         0         0         0         0         0         0         0         0
         0         0         0         0         0         0         0         0
         0         0         0         0         0         0         0         0
         0         0         0         0         0         0         0         0
         0         0         0         0         0         0         0         0
         0         0         0         0         0         0         0         0
         0         0         0         0         0         0         0         0
         0         0         0         0         0         0         0         0
         0         0         0         0         0         0         0         0
         0         0         0         0         0         0         0         0
         0         0         0         0         0         0         0         0
         0         0         0         0         0         0         0         0
         0         0         0         0         0         0         0         0
         0         0         0         0         0         0         0         0
         0         0         0         0         0         0         0         0
         0         0         0         0         0         0         0         0
         0         0         0         0         0         0         0         0
         0         0         0         0         0         0         0         0
         0         0         0         0         0         0         0         0
         0         0         0         0         0         0         0         0
         0         0         0         0         0         0         0         0
         0         0         0         0         0         0         0         0
         0         0         0         0         0         0         0         0
         0         0         0         0         0         0         0         0
         0         0         0         0         0         0         0         0
         0         0         0         0         0         0         0         0
         0         0         0         0         0         0         0         0
         0         0         0         0         0         0         0         0
         0         0         0         0         0         0         0         0
         0         0         0         0         0         0         0         0
         0         0         0         0         0         0         0         0
         0         0         0         0         0         0         0         0
         0         0         0         0         0         0         0         0
         0         0         0         0         0         0         0         0
         0         0         0         0         0         0         0         0
         0         0         0         0         0         0         0         0
         0         0         0         0         0         0         0         0
         0         0         0         0         0         0         0         0
         0         0         0         0         0         0         0         0
         0         0         0         0         0         0         0         0
         0         0         0         0         0         0         0         0
         0         0         0         0         0         0         0         0
         0         0         0         0         0         0         0         0
         0         0         0         0         0         0         0         0
         0         0         0         0         0         0         0         0
         0         0         0         0         0         0         0         0
         0         0         0         0         0         0         0         0
         0         0         0         0         0         0         0         0
         0         0         0         0         0         0         0         0
         0         0         0         0         0         0         0         0
         0         0         0         0         0         0         0         0
         0         0         0         0         0         0         0         0
         0         0         0         0         0         0         0         0
         0         0         0         0         0         0         0         0
         0         0         0         0         0         0         0         0
         0         0         0         0         0         0         0         0
         0         0         0         0         0         0         0         0
         0         0         0         0         0         0         0         0
         0         0         0         0         0         0         0         0
         0         0         0         0         0         0         0         0
         0         0         0         0         0         0         0         0
         0         0         0         0         0         0         0         0
         0         0         0         0         0         0         0         0
         0         0         0         0         0         0         0         0
         0         0         0         0         0         0         0         0
         0         0         0         0         0         0         0         0
         0         0         0         0         0         0         0         0
         0         0         0         0         0         0         0         0
         0         0         0         0         0         0         0         0
         0         0         0         0         0         0         0         0
         0         0         0         0         0         0         0         0
         0         0         0         0         0         0         0         0
         0         0         0         0         0         0         0         0
         0         0         0         0         0         0         0         0
         0         0         0         0         0         0         0         0
         0         0         0         0         0         0         0         0
         0         0         0         0         0         0         0         0
         0         0         0         0         0         0         0         0
         0         0         0         0         0         0         0         0
         0         0         0         0         0         0         0         0
         0         0         0         0         0         0         0         0
         0         0         0         0         0         0         0         0
         0         0         0         0         0         0         0         0
         0         0         0         0         0         0         0         0
         0         0         0         0         0         0         0         0
         0         0         0         0         0         0         0         0
         0         0         0         0         0         0         0         0
         0         0         0         0         0         0         0         0
         0         0         0         0         0         0         0         0
         0         0         0         0         0         0         0         0
         0         0         0         0         0         0         0         0
         0         0         0         0         0         0         0         0
         0         0         0         0         0         0         0         0
         0         0         0         0         0         0         0         0
         0         0         0         0         0         0         0         0
         0         0         0         0         0         0         0         0
         0         0         0         0         0         0         0         0
         0         0         0         0         0         0         0         0
         0         0         0         0         0         0         0         0
         0         0         0         0         0         0         0         0
         0         0         0         0         0         0         0         0
         0         0         0         0         0         0         0         0
         0         0         0         0         0         0         0         0
         0         0         0         0         0         0         0         0
         0         0         0         0         0         0         0         0
         0         0         0         0         0         0         0         0
         0         0         0         0         0         0         0         0
         0         0         0         0         0         0         0         0
         0         0         0         0         0         0         0         0
         0         0         0         0         0         0         0         0
         0         0         0         0         0         0         0         0
         0         0         0         0         0         0         0         0
         0         0         0         0         0         0         0         0
         0         0         0         0         0         0         0         0
         0         0         0         0         0         0         0         0
         0         0         0         0         0         0         0         0
         0         0         0         0         0         0         0         0
         0         0         0         0         0         0         0         0
         0         0         0         0         0         0         0         0
         0         0         0         0         0         0         0         0
         0         0         0         0         0         0         0         0
         0         0         0         0         0         0         0         0
         0         0         0         0         0         0         0         0
         0         0         0         0         0         0         0         0
         0         0         0         0         0         0         0         0
         0         0         0         0         0         0         0         0
         0         0         0         0         0         0         0         0
         0         0         0         0         0         0         0         0
         0         0         0         0         0         0         0         0
         0         0         0         0         0         0         0         0
         0         0         0         0         0         0         0         0
         0         0         0         0         0         0         0         0
         0         0         0         0         0         0         0         0
         0         0         0         0         0         0         0         0
         0         0         0         0         0         0         0         0
         0         0         0         0         0         0         0         0
         0         0         0         0         0         0         0         0
         0         0         0         0         0         0         0         0
         0         0         0         0         0         0         0         0
         0         0         0         0         0         0         0         0
         0         0         0         0         0         0         0         0
         0         0         0         0         0         0         0         0
         0         0         0         0         0         0         0         0
         0         0         0         0         0         0         0         0
         0         0         0         0         0         0         0         0
         0         0         0         0         0         0         0         0
         0         0         0         0         0         0         0         0
         0         0         0         0         0         0         0         0
         0         0         0         0         0         0         0         0
         0         0         0         0         0         0         0         0
         0         0         0         0         0         0         0         0
         0         0         0         0         0         0         0         0
         0         0         0         0         0         0         0         0
         0         0         0         0         0         0         0         0
         0         0         0         0         0         0         0         0
         0         0         0         0         0         0         0         0
         0         0         0         0         0         0         0         0
         0         0         0         0         0         0         0         0
         0         0         0         0         0         0         0         0
         0         0         0         0         0         0         0         0
         0         0         0         0         0         0         0         0
         0         0         0         0         0         0         0         0
         0         0         0         0         0         0         0         0
         0         0         0         0         0         0         0         0
         0         0         0         0         0         0         0         0
         0         0         0         0         0         0         0         0
         0         0         0         0         0         0         0         0
         0         0         0         0         0         0         0         0
         0         0         0         0         0         0         0         0
         0         0         0         0         0         0         0         0
         0         0         0         0         0         0         0         0
         0         0         0         0         0         0         0         0
         0         0         0         0         0         0         0         0
         0         0         0         0         0         0         0         0
         0         0         0         0         0         0         0         0
         0         0         0         0         0         0         0         0
         0         0         0         0         0         0         0         0
         0         0         0         0         0         0         0         0
         0         0         0         0         0         0         0         0
         0         0         0         0         0         0         0         0
         0         0         0         0         0         0         0         0
         0         0         0         0

      6774         0 !NGRP NST2
         0         2         0         7         2         0        18         1         0
        26         1         0        35         1         0        38         1         0
        41         1         0        44         1         0        47         1         0
        50         1         0        53         1         0        55         1         0
        58         1         0        60         1         0        63         1         0
        66         1         0        69         1         0        72         1         0
        75         1         0        79         1         0        82         1         0
        85         1         0        88         1         0        91         1         0
        94         1         0        97         1         0       100         1         0
       103         1         0       106         1         0       109         1         0
       112         1         0       115         1         0       119         2         0
       126         2         0       137         1         0       145         1         0
       154         1         0       157         1         0       160         1         0
       163         1         0       166         1         0       169         1         0
       172         1         0       174         1         0       177         1         0
       179         1         0       182         1         0       185         1         0
       188         1         0       191         1         0       194         1         0
       198         1         0       201         1         0       204         1         0
       207         1         0       210         1         0       213         1         0
       216         1         0       219         1         0       222         1         0
       225         1         0       228         1         0       231         1         0
       234         1         0       237         1         0       241         1         0
       246         1         0       250         2         0       261         1         0
       269         1         0       278         1         0       281         1         0
       284         1         0       287         1         0       290         1         0
       293         1         0       296         1         0       298         1         0
       300         1         0       303         1         0       306         1         0
       309         1         0       312         1         0       315         1         0
       319         1         0       322         1         0       325         1         0
       328         1         0       331         1         0       334         1         0
       337         1         0       340         1         0       343         1         0
       346         1         0       349         1         0       352         1         0
       355         1         0       358         1         0       362         1         0
       367         1         0       371         2         0       382         1         0
       390         1         0       399         1         0       402         1         0
       405         1         0       408         1         0       411         1         0
       414         1         0       417         1         0       419         1         0
       422         1         0       424         1         0       427         1         0
       430         1         0       433         1         0       436         1         0
       439         1         0       443         1         0       446         1         0
       449         1         0       452         1         0       455         1         0
       458         1         0       461         1         0       464         1         0
       467         1         0       470         1         0       473         1         0
       476         1         0       479         1         0       482         1         0
       486         2         0       493         2         0       504         1         0
       512         1         0       521         1         0       524         1         0
       527         1         0       530         1         0       533         1         0
       536         1         0       539         1         0       541         1         0
       544         1         0       546         1         0       549         1         0
       552         1         0       555         1         0       558         1         0
       561         1         0       565         1         0       568         1         0
       571         1         0       574         1         0       577         1         0
       580         1         0       583         1         0       586         1         0
       589         1         0       592         1         0       595         1         0
       598         1         0       601         1         0       605         2         0
       612         2         0       623         1         0       631         1         0
       640         1         0       643         1         0       646         1         0
       649         1         0       652         1         0       655         1         0
       658         1         0       660         1         0       663         1         0
       665         1         0       668         1         0       671         1         0
       674         1         0       677         1         0       680         1         0
       684         1         0       687         1         0       690         1         0
       693         1         0       696         1         0       699         1         0
       702         1         0       705         1         0       708         1         0
       711         1         0       714         1         0       717         1         0
       720         1         0       723         1         0       727         1         0
       732         1         0       736         2         0       747         1         0
       755         1         0       764         1         0       767         1         0
       770         1         0       773         1         0       776         1         0
       779         1         0       782         1         0       784         1         0
       787         1         0       789         1         0       792         1         0
       795         1         0       798         1         0       801         1         0
       804         1         0       808         1         0       811         1         0
       814         1         0       817         1         0       820         1         0
       823         1         0       826         1         0       829         1         0
       832         1         0       835         1         0       838         1         0
       841         1         0       844         1         0       847         1         0
       851         1         0       856         1         0       860         2         0
       871         1         0       879         1         0       888         1         0
       891         1         0       894         1         0       897         1         0
       900         1         0       903         1         0       906         1         0
       908         1         0       910         1         0       913         1         0
       916         1         0       919         1         0       922         1         0
       925         1         0       929         1         0       932         1         0
       935         1         0       938         1         0       941         1         0
       944         1         0       947         1         0       950         1         0
       953         1         0       956         1         0       959         1         0
       962         1         0       965         1         0       968         1         0
       972         2         0       979         2         0       990         1         0
       998         1         0      1007         1         0      1010         1         0
      1013         1         0      1016         1         0      1019         1         0
      1022         1         0      1025         1         0      1027         1         0
      1030         1         0      1032         1         0      1035         1         0
      1038         1         0      1041         1         0      1044         1         0
      1047         1         0      1051         1         0      1054         1         0
      1057         1         0      1060         1         0      1063         1         0
      1066         1         0      1069         1         0      1072         1         0
      1075         1         0      1078         1         0      1081         1         0
      1084         1         0      1087         1         0      1090         1         0
      1094         2         0      1101         2         0      1112         1         0
      1120         1         0      1129         1         0      1132         1         0
      1135         1         0      1138         1         0      1141         1         0
      1144         1         0      1147         1         0      1149         1         0
      1151         1         0      1154         1         0      1157         1         0
      1160         1         0      1163         1         0      1166         1         0
      1169         1         0      1172         1         0      1176         1         0
      1179         1         0      1182         1         0      1185         1         0
      1188         1         0      1191         1         0      1194         1         0
      1197         1         0      1200         1         0      1203         1         0
      1206         1         0      1209         1         0      1212         1         0
      1215         1         0      1219         2         0      1226         2         0
      1237         1         0      1245         1         0      1254         1         0
      1257         1         0      1260         1         0      1263         1         0
      1266         1         0      1269         1         0      1272         1         0
      1274         1         0      1277         1         0      1279         1         0
      1282         1         0      1285         1         0      1288         1         0
      1291         1         0      1294         1         0      1298         1         0
      1301         1         0      1304         1         0      1307         1         0
      1310         1         0      1313         1         0      1316         1         0
      1319         1         0      1322         1         0      1325         1         0
      1328         1         0      1331         1         0      1334         1         0
      1337         1         0      1341         2         0      1348         2         0
      1359         1         0      1367         1         0      1376         1         0
      1379         1         0      1382         1         0      1385         1         0
      1388         1         0      1391         1         0      1394         1         0
      1396         1         0      1399         1         0      1401         1         0
      1404         1         0      1407         1         0      1410         1         0
      1413         1         0      1416         1         0      1420         1         0
      1423         1         0      1426         1         0      1429         1         0
      1432         1         0      1435         1         0      1438         1         0
      1441         1         0      1444         1         0      1447         1         0
      1450         1         0      1453         1         0      1456         1         0
      1459         1         0      1463         2         0      1470         2         0
      1481         1         0      1489         1         0      1498         1         0
      1501         1         0      1504         1         0      1507         1         0
      1510         1         0      1513         1         0      1516         1         0
      1518         1         0      1520         1         0      1523         1         0
      1526         1         0      1529         1         0      1532         1         0
      1535         1         0      1538         1         0      1541         1         0
      1545         1         0      1548         1         0      1551         1         0
      1554         1         0      1557         1         0      1560         1         0
      1563         1         0      1566         1         0      1569         1         0
      1572         1         0      1575         1         0      1578         1         0
      1581         1         0      1584         1         0      1588         2         0
      1595         2         0      1606         1         0      1614         1         0
      1623         1         0      1626         1         0      1629         1         0
      1632         1         0      1635         1         0      1638         1         0
      1641         1         0      1643         1         0      1646         1         0
      1648         1         0      1651         1         0      1654         1         0
      1657         1         0      1660         1         0      1663         1         0
      1667         1         0      1670         1         0      1673         1         0
      1676         1         0      1679         1         0      1682         1         0
      1685         1         0      1688         1         0      1691         1         0
      1694         1         0      1697         1         0      1700         1         0
      1703         1         0      1706         1         0      1710         2         0
      1717         2         0      1728         1         0      1736         1         0
      1745         1         0      1748         1         0      1751         1         0
      1754         1         0      1757         1         0      1760         1         0
      1763         1         0      1765         1         0      1767         1         0
      1770         1         0      1773         1         0      1776         1         0
      1779         1         0      1782         1         0      1786         1         0
      1789         1         0      1792         1         0      1795         1         0
      1798         1         0      1801         1         0      1804         1         0
      1806         1         0      1808         1         0      1811         1         0
      1814         1         0      1817         1         0      1820         1         0
      1823         1         0      1826         1         0      1829         1         0
      1833         1         0      1838         1         0      1842         2         0
      1853         1         0      1861         1         0      1870         1         0
      1873         1         0      1876         1         0      1879         1         0
      1882         1         0      1885         1         0      1888         1         0
      1890         1         0      1892         1         0      1895         1         0
      1898         1         0      1901         1         0      1904         1         0
      1907         1         0      1911         1         0      1914         1         0
      1917         1         0      1920         1         0      1923         1         0
      1926         1         0      1929         1         0      1932         1         0
      1935         1         0      1938         1         0      1941         1         0
      1944         1         0      1947         1         0      1950         1         0
      1954         2         0      1961         2         0      1972         1         0
      1980         1         0      1989         1         0      1992         1         0
      1995         1         0      1998         1         0      2001         1         0
      2004         1         0      2007         1         0      2009         1         0
      2012         1         0      2014         1         0      2017         1         0
      2020         1         0      2023         1         0      2026         1         0
      2029         1         0      2033         1         0      2036         1         0
      2039         1         0      2042         1         0      2045         1         0
      2048         1         0      2051         1         0      2054         1         0
      2057         1         0      2060         1         0      2063         1         0
      2066         1         0      2069         1         0      2072         1         0
      2076         2         0      2083         2         0      2094         1         0
      2102         1         0      2111         1         0      2114         1         0
      2117         1         0      2120         1         0      2123         1         0
      2126         1         0      2129         1         0      2131         1         0
      2134         1         0      2136         1         0      2139         1         0
      2142         1         0      2145         1         0      2148         1         0
      2151         1         0      2155         1         0      2158         1         0
      2161         1         0      2164         1         0      2167         1         0
      2170         1         0      2173         1         0      2176         1         0
      2179         1         0      2182         1         0      2185         1         0
      2188         1         0      2191         1         0      2195         2         0
      2202         2         0      2213         1         0      2221         1         0
      2230         1         0      2233         1         0      2236         1         0
      2239         1         0      2242         1         0      2245         1         0
      2248         1         0      2250         1         0      2252         1         0
      2255         1         0      2258         1         0      2261         1         0
      2264         1         0      2267         1         0      2271         1         0
      2274         1         0      2277         1         0      2280         1         0
      2283         1         0      2286         1         0      2289         1         0
      2291         1         0      2293         1         0      2296         1         0
      2299         1         0      2302         1         0      2305         1         0
      2308         1         0      2311         1         0      2314         1         0
      2318         2         0      2325         2         0      2336         1         0
      2344         1         0      2353         1         0      2356         1         0
      2359         1         0      2362         1         0      2365         1         0
      2368         1         0      2371         1         0      2373         1         0
      2375         1         0      2378         1         0      2381         1         0
      2384         1         0      2387         1         0      2390         1         0
      2393         1         0      2396         1         0      2400         1         0
      2403         1         0      2406         1         0      2409         1         0
      2412         1         0      2415         1         0      2418         1         0
      2421         1         0      2424         1         0      2427         1         0
      2430         1         0      2433         1         0      2436         1         0
      2439         1         0      2443         2         0      2450         2         0
      2461         1         0      2469         1         0      2478         1         0
      2481         1         0      2484         1         0      2487         1         0
      2490         1         0      2493         1         0      2496         1         0
      2498         1         0      2500         1         0      2503         1         0
      2506         1         0      2509         1         0      2512         1         0
      2515         1         0      2519         1         0      2522         1         0
      2525         1         0      2528         1         0      2531         1         0
      2534         1         0      2537         1         0      2539         1         0
      2541         1         0      2544         1         0      2547         1         0
      2550         1         0      2553         1         0      2556         1         0
      2559         1         0      2562         1         0      2566         2         0
      2573         2         0      2584         1         0      2592         1         0
      2601         1         0      2604         1         0      2607         1         0
      2610         1         0      2613         1         0      2616         1         0
      2619         1         0      2621         1         0      2624         1         0
      2626         1         0      2629         1         0      2632         1         0
      2635         1         0      2638         1         0      2641         1         0
      2645         1         0      2648         1         0      2651         1         0
      2654         1         0      2657         1         0      2660         1         0
      2663         1         0      2666         1         0      2669         1         0
      2672         1         0      2675         1         0      2678         1         0
      2681         1         0      2684         1         0      2688         1         0
      2693         1         0      2697         2         0      2708         1         0
      2716         1         0      2725         1         0      2728         1         0
      2731         1         0      2734         1         0      2737         1         0
      2740         1         0      2743         1         0      2745         1         0
      2747         1         0      2750         1         0      2753         1         0
      2756         1         0      2759         1         0      2762         1         0
      2766         1         0      2769         1         0      2772         1         0
      2775         1         0      2778         1         0      2781         1         0
      2784         1         0      2787         1         0      2790         1         0
      2793         1         0      2796         1         0      2799         1         0
      2802         1         0      2805         1         0      2809         2         0
      2816         2         0      2827         1         0      2835         1         0
      2844         1         0      2847         1         0      2850         1         0
      2853         1         0      2856         1         0      2859         1         0
      2862         1         0      2864         1         0      2867         1         0
      2869         1         0      2872         1         0      2875         1         0
      2878         1         0      2881         1         0      2884         1         0
      2888         1         0      2891         1         0      2894         1         0
      2897         1         0      2900         1         0      2903         1         0
      2906         1         0      2909         1         0      2912         1         0
      2915         1         0      2918         1         0      2921         1         0
      2924         1         0      2927         1         0      2931         2         0
      2938         2         0      2949         1         0      2957         1         0
      2966         1         0      2969         1         0      2972         1         0
      2975         1         0      2978         1         0      2981         1         0
      2984         1         0      2986         1         0      2989         1         0
      2991         1         0      2994         1         0      2997         1         0
      3000         1         0      3003         1         0      3006         1         0
      3010         1         0      3013         1         0      3016         1         0
      3019         1         0      3022         1         0      3025         1         0
      3028         1         0      3031         1         0      3034         1         0
      3037         1         0      3040         1         0      3043         1         0
      3046         1         0      3049         1         0      3053         2         0
      3060         2         0      3071         1         0      3079         1         0
      3088         1         0      3091         1         0      3094         1         0
      3097         1         0      3100         1         0      3103         1         0
      3106         1         0      3108         1         0      3111         1         0
      3113         1         0      3116         1         0      3119         1         0
      3122         1         0      3125         1         0      3128         1         0
      3132         1         0      3135         1         0      3138         1         0
      3141         1         0      3144         1         0      3147         1         0
      3150         1         0      3153         1         0      3156         1         0
      3159         1         0      3162         1         0      3165         1         0
      3168         1         0      3171         1         0      3175         2         0
      3182         2         0      3193         1         0      3201         1         0
      3210         1         0      3213         1         0      3216         1         0
      3219         1         0      3222         1         0      3225         1         0
      3228         1         0      3230         1         0      3233         1         0
      3235         1         0      3238         1         0      3241         1         0
      3244         1         0      3247         1         0      3250         1         0
      3254         1         0      3257         1         0      3260         1         0
      3263         1         0      3266         1         0      3269         1         0
      3272         1         0      3275         1         0      3278         1         0
      3281         1         0      3284         1         0      3287         1         0
      3290         1         0      3293         1         0      3297         2         0
      3304         2         0      3315         1         0      3323         1         0
      3332         1         0      3335         1         0      3338         1         0
      3341         1         0      3344         1         0      3347         1         0
      3350         1         0      3352         1         0      3355         1         0
      3357         1         0      3360         1         0      3363         1         0
      3366         1         0      3369         1         0      3372         1         0
      3376         1         0      3379         1         0      3382         1         0
      3385         1         0      3388         1         0      3391         1         0
      3394         1         0      3397         1         0      3400         1         0
      3403         1         0      3406         1         0      3409         1         0
      3412         1         0      3415         1         0      3419         1         0
      3424         1         0      3428         2         0      3439         1         0
      3447         1         0      3456         1         0      3459         1         0
      3462         1         0      3465         1         0      3468         1         0
      3471         1         0      3474         1         0      3476         1         0
      3479         1         0      3481         1         0      3484         1         0
      3487         1         0      3490         1         0      3493         1         0
      3496         1         0      3500         1         0      3503         1         0
      3506         1         0      3509         1         0      3512         1         0
      3515         1         0      3518         1         0      3521         1         0
      3524         1         0      3527         1         0      3530         1         0
      3533         1         0      3536         1         0      3539         1         0
      3543         2         0      3550         2         0      3561         1         0
      3569         1         0      3578         1         0      3581         1         0
      3584         1         0      3587         1         0      3590         1         0
      3593         1         0      3596         1         0      3598         1         0
      3601         1         0      3603         1         0      3606         1         0
      3609         1         0      3612         1         0      3615         1         0
      3618         1         0      3622         1         0      3625         1         0
      3628         1         0      3631         1         0      3634         1         0
      3637         1         0      3640         1         0      3643         1         0
      3646         1         0      3649         1         0      3652         1         0
      3655         1         0      3658         1         0      3661         1         0
      3665         1         0      3670         1         0      3674         2         0
      3685         1         0      3693         1         0      3702         1         0
      3705         1         0      3708         1         0      3711         1         0
      3714         1         0      3717         1         0      3720         1         0
      3722         1         0      3724         1         0      3727         1         0
      3730         1         0      3733         1         0      3736         1         0
      3739         1         0      3743         1         0      3746         1         0
      3749         1         0      3752         1         0      3755         1         0
      3758         1         0      3761         1         0      3764         1         0
      3767         1         0      3770         1         0      3773         1         0
      3776         1         0      3779         1         0      3782         1         0
      3786         2         0      3793         2         0      3804         1         0
      3812         1         0      3821         1         0      3824         1         0
      3827         1         0      3830         1         0      3833         1         0
      3836         1         0      3839         1         0      3841         1         0
      3843         1         0      3846         1         0      3849         1         0
      3852         1         0      3855         1         0      3858         1         0
      3862         1         0      3865         1         0      3868         1         0
      3871         1         0      3874         1         0      3877         1         0
      3880         1         0      3882         1         0      3884         1         0
      3887         1         0      3890         1         0      3893         1         0
      3896         1         0      3899         1         0      3902         1         0
      3905         1         0      3909         2         0      3916         2         0
      3927         1         0      3935         1         0      3944         1         0
      3947         1         0      3950         1         0      3953         1         0
      3956         1         0      3959         1         0      3962         1         0
      3964         1         0      3966         1         0      3969         1         0
      3972         1         0      3975         1         0      3978         1         0
      3981         1         0      3985         1         0      3988         1         0
      3991         1         0      3994         1         0      3997         1         0
      4000         1         0      4003         1         0      4005         1         0
      4007         1         0      4010         1         0      4013         1         0
      4016         1         0      4019         1         0      4022         1         0
      4025         1         0      4028         1         0      4032         1         0
      4037         1         0      4041         2         0      4052         1         0
      4060         1         0      4069         1         0      4072         1         0
      4075         1         0      4078         1         0      4081         1         0
      4084         1         0      4087         1         0      4089         1         0
      4092         1         0      4094         1         0      4097         1         0
      4100         1         0      4103         1         0      4106         1         0
      4109         1         0      4113         1         0      4116         1         0
      4119         1         0      4122         1         0      4125         1         0
      4128         1         0      4131         1         0      4134         1         0
      4137         1         0      4140         1         0      4143         1         0
      4146         1         0      4149         1         0      4152         1         0
      4156         2         0      4163         2         0      4174         1         0
      4182         1         0      4191         1         0      4194         1         0
      4197         1         0      4200         1         0      4203         1         0
      4206         1         0      4209         1         0      4211         1         0
      4214         1         0      4216         1         0      4219         1         0
      4222         1         0      4225         1         0      4228         1         0
      4231         1         0      4235         1         0      4238         1         0
      4241         1         0      4244         1         0      4247         1         0
      4250         1         0      4253         1         0      4256         1         0
      4259         1         0      4262         1         0      4265         1         0
      4268         1         0      4271         1         0      4274         1         0
      4278         2         0      4285         2         0      4296         1         0
      4304         1         0      4313         1         0      4316         1         0
      4319         1         0      4322         1         0      4325         1         0
      4328         1         0      4331         1         0      4333         1         0
      4335         1         0      4338         1         0      4341         1         0
      4344         1         0      4347         1         0      4350         1         0
      4353         1         0      4356         1         0      4360         1         0
      4363         1         0      4366         1         0      4369         1         0
      4372         1         0      4375         1         0      4378         1         0
      4381         1         0      4384         1         0      4387         1         0
      4390         1         0      4393         1         0      4396         1         0
      4399         1         0      4403         2         0      4410         2         0
      4421         1         0      4429         1         0      4438         1         0
      4441         1         0      4444         1         0      4447         1         0
      4450         1         0      4453         1         0      4456         1         0
      4458         1         0      4460         1         0      4463         1         0
      4466         1         0      4469         1         0      4472         1         0
      4475         1         0      4479         1         0      4482         1         0
      4485         1         0      4488         1         0      4491         1         0
      4494         1         0      4497         1         0      4499         1         0
      4501         1         0      4504         1         0      4507         1         0
      4510         1         0      4513         1         0      4516         1         0
      4519         1         0      4522         1         0      4526         2         0
      4533         2         0      4544         1         0      4552         1         0
      4561         1         0      4564         1         0      4567         1         0
      4570         1         0      4573         1         0      4576         1         0
      4579         1         0      4581         1         0      4584         1         0
      4586         1         0      4589         1         0      4592         1         0
      4595         1         0      4598         1         0      4601         1         0
      4605         1         0      4608         1         0      4611         1         0
      4614         1         0      4617         1         0      4620         1         0
      4623         1         0      4626         1         0      4629         1         0
      4632         1         0      4635         1         0      4638         1         0
      4641         1         0      4644         1         0      4648         2         0
      4655         2         0      4666         1         0      4674         1         0
      4683         1         0      4686         1         0      4689         1         0
      4692         1         0      4695         1         0      4698         1         0
      4701         1         0      4703         1         0      4706         1         0
      4708         1         0      4711         1         0      4714         1         0
      4717         1         0      4720         1         0      4723         1         0
      4727         1         0      4730         1         0      4733         1         0
      4736         1         0      4739         1         0      4742         1         0
      4745         1         0      4748         1         0      4751         1         0
      4754         1         0      4757         1         0      4760         1         0
      4763         1         0      4766         1         0      4770         1         0
      4775         1         0      4779         2         0      4790         1         0
      4798         1         0      4807         1         0      4810         1         0
      4813         1         0      4816         1         0      4819         1         0
      4822         1         0      4825         1         0      4827         1         0
      4830         1         0      4832         1         0      4835         1         0
      4838         1         0      4841         1         0      4844         1         0
      4847         1         0      4851         1         0      4854         1         0
      4857         1         0      4860         1         0      4863         1         0
      4866         1         0      4869         1         0      4872         1         0
      4875         1         0      4878         1         0      4881         1         0
      4884         1         0      4887         1         0      4890         1         0
      4894         2         0      4901         2         0      4912         1         0
      4920         1         0      4929         1         0      4932         1         0
      4935         1         0      4938         1         0      4941         1         0
      4944         1         0      4947         1         0      4949         1         0
      4952         1         0      4954         1         0      4957         1         0
      4960         1         0      4963         1         0      4966         1         0
      4969         1         0      4973         1         0      4976         1         0
      4979         1         0      4982         1         0      4985         1         0
      4988         1         0      4991         1         0      4994         1         0
      4997         1         0      5000         1         0      5003         1         0
      5006         1         0      5009         1         0      5013         2         0
      5020         2         0      5031         1         0      5039         1         0
      5048         1         0      5051         1         0      5054         1         0
      5057         1         0      5060         1         0      5063         1         0
      5066         1         0      5068         1         0      5071         1         0
      5073         1         0      5076         1         0      5079         1         0
      5082         1         0      5085         1         0      5088         1         0
      5092         1         0      5095         1         0      5098         1         0
      5101         1         0      5104         1         0      5107         1         0
      5110         1         0      5113         1         0      5116         1         0
      5119         1         0      5122         1         0      5125         1         0
      5128         1         0      5131         1         0      5135         2         0
      5142         2         0      5153         1         0      5161         1         0
      5170         1         0      5173         1         0      5176         1         0
      5179         1         0      5182         1         0      5185         1         0
      5188         1         0      5190         1         0      5193         1         0
      5195         1         0      5198         1         0      5201         1         0
      5204         1         0      5207         1         0      5210         1         0
      5214         1         0      5217         1         0      5220         1         0
      5223         1         0      5226         1         0      5229         1         0
      5232         1         0      5235         1         0      5238         1         0
      5241         1         0      5244         1         0      5247         1         0
      5250         1         0      5254         2         0      5261         2         0
      5272         1         0      5280         1         0      5289         1         0
      5292         1         0      5295         1         0      5298         1         0
      5301         1         0      5304         1         0      5307         1         0
      5309         1         0      5312         1         0      5314         1         0
      5317         1         0      5320         1         0      5323         1         0
      5326         1         0      5329         1         0      5333         1         0
      5336         1         0      5339         1         0      5342         1         0
      5345         1         0      5348         1         0      5351         1         0
      5354         1         0      5357         1         0      5360         1         0
      5363         1         0      5366         1         0      5369         1         0
      5372         1         0      5376         2         0      5383         2         0
      5394         1         0      5402         1         0      5411         1         0
      5414         1         0      5417         1         0      5420         1         0
      5423         1         0      5426         1         0      5429         1         0
      5431         1         0      5434         1         0      5436         1         0
      5439         1         0      5442         1         0      5445         1         0
      5448         1         0      5451         1         0      5455         1         0
      5458         1         0      5461         1         0      5464         1         0
      5467         1         0      5470         1         0      5473         1         0
      5476         1         0      5479         1         0      5482         1         0
      5485         1         0      5488         1         0      5491         1         0
      5494         1         0      5498         2         0      5505         2         0
      5516         1         0      5524         1         0      5533         1         0
      5536         1         0      5539         1         0      5542         1         0
      5545         1         0      5548         1         0      5551         1         0
      5553         1         0      5556         1         0      5558         1         0
      5561         1         0      5564         1         0      5567         1         0
      5570         1         0      5573         1         0      5577         1         0
      5580         1         0      5583         1         0      5586         1         0
      5589         1         0      5592         1         0      5595         1         0
      5598         1         0      5601         1         0      5604         1         0
      5607         1         0      5610         1         0      5613         1         0
      5616         1         0      5620         1         0      5625         1         0
      5629         2         0      5640         1         0      5648         1         0
      5657         1         0      5660         1         0      5663         1         0
      5666         1         0      5669         1         0      5672         1         0
      5675         1         0      5677         1         0      5680         1         0
      5682         1         0      5685         1         0      5688         1         0
      5691         1         0      5694         1         0      5697         1         0
      5701         1         0      5704         1         0      5707         1         0
      5710         1         0      5713         1         0      5716         1         0
      5719         1         0      5722         1         0      5725         1         0
      5728         1         0      5731         1         0      5734         1         0
      5737         1         0      5740         1         0      5744         1         0
      5749         1         0      5753         2         0      5764         1         0
      5772         1         0      5781         1         0      5784         1         0
      5787         1         0      5790         1         0      5793         1         0
      5796         1         0      5799         1         0      5801         1         0
      5803         1         0      5806         1         0      5809         1         0
      5812         1         0      5815         1         0      5818         1         0
      5822         1         0      5825         1         0      5828         1         0
      5831         1         0      5834         1         0      5837         1         0
      5840         1         0      5843         1         0      5846         1         0
      5849         1         0      5852         1         0      5855         1         0
      5858         1         0      5861         1         0      5865         1         0
      5870         1         0      5874         2         0      5885         1         0
      5893         1         0      5902         1         0      5905         1         0
      5908         1         0      5911         1         0      5914         1         0
      5917         1         0      5920         1         0      5922         1         0
      5925         1         0      5927         1         0      5930         1         0
      5933         1         0      5936         1         0      5939         1         0
      5942         1         0      5946         1         0      5949         1         0
      5952         1         0      5955         1         0      5958         1         0
      5961         1         0      5964         1         0      5967         1         0
      5970         1         0      5973         1         0      5976         1         0
      5979         1         0      5982         1         0      5985         1         0
      5989         2         0      5996         2         0      6007         1         0
      6015         1         0      6024         1         0      6027         1         0
      6030         1         0      6033         1         0      6036         1         0
      6039         1         0      6042         1         0      6044         1         0
      6047         1         0      6049         1         0      6052         1         0
      6055         1         0      6058         1         0      6061         1         0
      6064         1         0      6068         1         0      6071         1         0
      6074         1         0      6077         1         0      6080         1         0
      6083         1         0      6086         1         0      6089         1         0
      6092         1         0      6095         1         0      6098         1         0
      6101         1         0      6104         1         0      6107         1         0
      6111         2         0      6118         2         0      6129         1         0
      6137         1         0      6146         1         0      6149         1         0
      6152         1         0      6155         1         0      6158         1         0
      6161         1         0      6164         1         0      6166         1         0
      6169         1         0      6171         1         0      6174         1         0
      6177         1         0      6180         1         0      6183         1         0
      6186         1         0      6190         1         0      6193         1         0
      6196         1         0      6199         1         0      6202         1         0
      6205         1         0      6208         1         0      6211         1         0
      6214         1         0      6217         1         0      6220         1         0
      6223         1         0      6226         1         0      6229         1         0
      6233         2         0      6240         2         0      6251         1         0
      6259         1         0      6268         1         0      6271         1         0
      6274         1         0      6277         1         0      6280         1         0
      6283         1         0      6286         1         0      6288         1         0
      6291         1         0      6293         1         0      6296         1         0
      6299         1         0      6302         1         0      6305         1         0
      6308         1         0      6312         1         0      6315         1         0
      6318         1         0      6321         1         0      6324         1         0
      6327         1         0      6330         1         0      6333         1         0
      6336         1         0      6339         1         0      6342         1         0
      6345         1         0      6348         1         0      6351         1         0
      6355         2         0      6362         2         0      6373         1         0
      6381         1         0      6390         1         0      6393         1         0
      6396         1         0      6399         1         0      6402         1         0
      6405         1         0      6408         1         0      6410         1         0
      6413         1         0      6415         1         0      6418         1         0
      6421         1         0      6424         1         0      6427         1         0
      6430         1         0      6434         1         0      6437         1         0
      6440         1         0      6443         1         0      6446         1         0
      6449         1         0      6452         1         0      6455         1         0
      6458         1         0      6461         1         0      6464         1         0
      6467         1         0      6470         1         0      6473         1         0
      6477         1         0      6482         1         0      6486         2         0
      6497         1         0      6505         1         0      6514         1         0
      6517         1         0      6520         1         0      6523         1         0
      6526         1         0      6529         1         0      6532         1         0
      6534         1         0      6537         1         0      6539         1         0
      6542         1         0      6545         1         0      6548         1         0
      6551         1         0      6554         1         0      6558         1         0
      6561         1         0      6564         1         0      6567         1         0
      6570         1         0      6573         1         0      6576         1         0
      6579         1         0      6582         1         0      6585         1         0
      6588         1         0      6591         1         0      6594         1         0
      6597         1         0      6601         1         0      6606         1         0
      6610         2         0      6621         1         0      6629         1         0
      6638         1         0      6641         1         0      6644         1         0
      6647         1         0      6650         1         0      6653         1         0
      6656         1         0      6658         1         0      6661         1         0
      6663         1         0      6666         1         0      6669         1         0
      6672         1         0      6675         1         0      6678         1         0
      6682         1         0      6685         1         0      6688         1         0
      6691         1         0      6694         1         0      6697         1         0
      6700         1         0      6703         1         0      6706         1         0
      6709         1         0      6712         1         0      6715         1         0
      6718         1         0      6721         1         0      6725         2         0
      6732         2         0      6743         1         0      6751         1         0
      6760         1         0      6763         1         0      6766         1         0
      6769         1         0      6772         1         0      6775         1         0
      6778         1         0      6780         1         0      6783         1         0
      6785         1         0      6788         1         0      6791         1         0
      6794         1         0      6797         1         0      6800         1         0
      6804         1         0      6807         1         0      6810         1         0
      6813         1         0      6816         1         0      6819         1         0
      6822         1         0      6825         1         0      6828         1         0
      6831         1         0      6834         1         0      6837         1         0
      6840         1         0      6844         2         0      6851         2         0
      6862         1         0      6870         1         0      6879         1         0
      6882         1         0      6885         1         0      6888         1         0
      6891         1         0      6894         1         0      6897         1         0
      6899         1         0      6902         1         0      6904         1         0
      6907         1         0      6910         1         0      6913         1         0
      6916         1         0      6919         1         0      6923         1         0
      6926         1         0      6929         1         0      6932         1         0
      6935         1         0      6938         1         0      6941         1         0
      6944         1         0      6947         1         0      6950         1         0
      6953         1         0      6956         1         0      6959         1         0
      6962         1         0      6966         2         0      6973         2         0
      6984         1         0      6992         1         0      7001         1         0
      7004         1         0      7007         1         0      7010         1         0
      7013         1         0      7016         1         0      7019         1         0
      7021         1         0      7024         1         0      7026         1         0
      7029         1         0      7032         1         0      7035         1         0
      7038         1         0      7041         1         0      7045         1         0
      7048         1         0      7051         1         0      7054         1         0
      7057         1         0      7060         1         0      7063         1         0
      7066         1         0      7069         1         0      7072         1         0
      7075         1         0      7078         1         0      7081         1         0
      7084         1         0      7088         2         0      7095         2         0
      7106         1         0      7114         1         0      7123         1         0
      7126         1         0      7129         1         0      7132         1         0
      7135         1         0      7138         1         0      7141         1         0
      7143         1         0      7146         1         0      7148         1         0
      7151         1         0      7154         1         0      7157         1         0
      7160         1         0      7163         1         0      7167         1         0
      7170         1         0      7173         1         0      7176         1         0
      7179         1         0      7182         1         0      7185         1         0
      7188         1         0      7191         1         0      7194         1         0
      7197         1         0      7200         1         0      7203         1         0
      7206         1         0      7210         2         0      7217         2         0
      7228         1         0      7236         1         0      7245         1         0
      7248         1         0      7251         1         0      7254         1         0
      7257         1         0      7260         1         0      7263         1         0
      7265         1         0      7268         1         0      7270         1         0
      7273         1         0      7276         1         0      7279         1         0
      7282         1         0      7285         1         0      7289         1         0
      7292         1         0      7295         1         0      7298         1         0
      7301         1         0      7304         1         0      7307         1         0
      7310         1         0      7313         1         0      7316         1         0
      7319         1         0      7322         1         0      7325         1         0
      7328         1         0      7332         2         0      7339         2         0
      7350         1         0      7358         1         0      7367         1         0
      7370         1         0      7373         1         0      7376         1         0
      7379         1         0      7382         1         0      7385         1         0
      7387         1         0      7390         1         0      7392         1         0
      7395         1         0      7398         1         0      7401         1         0
      7404         1         0      7407         1         0      7411         1         0
      7414         1         0      7417         1         0      7420         1         0
      7423         1         0      7426         1         0      7429         1         0
      7432         1         0      7435         1         0      7438         1         0
      7441         1         0      7444         1         0      7447         1         0
      7450         1         0      7454         1         0      7459         1         0
      7463         2         0      7474         1         0      7482         1         0
      7491         1         0      7494         1         0      7497         1         0
      7500         1         0      7503         1         0      7506         1         0
      7509         1         0      7511         1         0      7514         1         0
      7516         1         0      7519         1         0      7522         1         0
      7525         1         0      7528         1         0      7531         1         0
      7535         1         0      7538         1         0      7541         1         0
      7544         1         0      7547         1         0      7550         1         0
      7553         1         0      7556         1         0      7559         1         0
      7562         1         0      7565         1         0      7568         1         0
      7571         1         0      7574         1         0      7578         2         0
      7585         2         0      7596         1         0      7604         1         0
      7613         1         0      7616         1         0      7619         1         0
      7622         1         0      7625         1         0      7628         1         0
      7631         1         0      7633         1         0      7635         1         0
      7638         1         0      7641         1         0      7644         1         0
      7647         1         0      7650         1         0      7653         1         0
      7656         1         0      7660         1         0      7663         1         0
      7666         1         0      7669         1         0      7672         1         0
      7675         1         0      7678         1         0      7681         1         0
      7684         1         0      7687         1         0      7690         1         0
      7693         1         0      7696         1         0      7699         1         0
      7703         2         0      7714         1         0      7718         2         0
      7729         1         0      7737         1         0      7746         1         0
      7754         1         0      7763         1         0      7766         1         0
      7769         1         0      7772         1         0      7775         1         0
      7778         1         0      7781         1         0      7784         1         0
      7787         1         0      7789         1         0      7791         1         0
      7794         1         0      7797         1         0      7800         1         0
      7803         1         0      7806         1         0      7810         1         0
      7813         1         0      7816         1         0      7819         1         0
      7822         1         0      7825         1         0      7828         1         0
      7831         1         0      7834         1         0      7837         1         0
      7840         1         0      7843         1         0      7846         1         0
      7849         1         0      7853         1         0      7856         1         0
      7859         1         0      7862         1         0      7865         1         0
      7868         1         0      7871         1         0      7874         1         0
      7877         1         0      7879         1         0      7881         1         0
      7884         1         0      7887         1         0      7890         1         0
      7893         1         0      7896         1         0      7900         1         0
      7903         1         0      7906         1         0      7909         1         0
      7912         1         0      7915         1         0      7918         1         0
      7921         1         0      7924         1         0      7927         1         0
      7930         1         0      7933         1         0      7936         1         0
      7939         1         0      7943         2         0      7950         2         0
      7961         1         0      7969         1         0      7978         1         0
      7981         1         0      7984         1         0      7987         1         0
      7990         1         0      7993         1         0      7996         1         0
      7998         1         0      8000         1         0      8003         1         0
      8006         1         0      8009         1         0      8012         1         0
      8015         1         0      8018         1         0      8021         1         0
      8025         1         0      8028         1         0      8031         1         0
      8034         1         0      8037         1         0      8040         1         0
      8043         1         0      8046         1         0      8049         1         0
      8052         1         0      8055         1         0      8058         1         0
      8061         1         0      8064         1         0      8068         2         0
      8075         2         0      8086         1         0      8094         1         0
      8103         1         0      8106         1         0      8109         1         0
      8112         1         0      8115         1         0      8118         1         0
      8121         1         0      8123         1         0      8125         1         0
      8128         1         0      8131         1         0      8134         1         0
      8137         1         0      8140         1         0      8144         1         0
      8147         1         0      8150         1         0      8153         1         0
      8156         1         0      8159         1         0      8162         1         0
      8164         1         0      8166         1         0      8169         1         0
      8172         1         0      8175         1         0      8178         1         0
      8181         1         0      8184         1         0      8187         1         0
      8191         2         0      8198         2         0      8209         1         0
      8217         1         0      8226         1         0      8229         1         0
      8232         1         0      8235         1         0      8238         1         0
      8241         1         0      8244         1         0      8246         1         0
      8249         1         0      8251         1         0      8254         1         0
      8257         1         0      8260         1         0      8263         1         0
      8266         1         0      8270         1         0      8273         1         0
      8276         1         0      8279         1         0      8282         1         0
      8285         1         0      8288         1         0      8291         1         0
      8294         1         0      8297         1         0      8300         1         0
      8303         1         0      8306         1         0      8309         1         0
      8313         1         0      8318         1         0      8322         2         0
      8333         1         0      8341         1         0      8350         1         0
      8353         1         0      8356         1         0      8359         1         0
      8362         1         0      8365         1         0      8368         1         0
      8370         1         0      8372         1         0      8375         1         0
      8378         1         0      8381         1         0      8384         1         0
      8387         1         0      8391         1         0      8394         1         0
      8397         1         0      8400         1         0      8403         1         0
      8406         1         0      8409         1         0      8412         1         0
      8415         1         0      8418         1         0      8421         1         0
      8424         1         0      8427         1         0      8430         1         0
      8434         2         0      8441         2         0      8452         1         0
      8460         1         0      8469         1         0      8472         1         0
      8475         1         0      8478         1         0      8481         1         0
      8484         1         0      8487         1         0      8489         1         0
      8492         1         0      8494         1         0      8497         1         0
      8500         1         0      8503         1         0      8506         1         0
      8509         1         0      8513         1         0      8516         1         0
      8519         1         0      8522         1         0      8525         1         0
      8528         1         0      8531         1         0      8534         1         0
      8537         1         0      8540         1         0      8543         1         0
      8546         1         0      8549         1         0      8552         1         0
      8556         2         0      8563         2         0      8574         1         0
      8582         1         0      8591         1         0      8594         1         0
      8597         1         0      8600         1         0      8603         1         0
      8606         1         0      8609         1         0      8611         1         0
      8614         1         0      8616         1         0      8619         1         0
      8622         1         0      8625         1         0      8628         1         0
      8631         1         0      8635         1         0      8638         1         0
      8641         1         0      8644         1         0      8647         1         0
      8650         1         0      8653         1         0      8656         1         0
      8659         1         0      8662         1         0      8665         1         0
      8668         1         0      8671         1         0      8674         1         0
      8678         2         0      8685         2         0      8696         1         0
      8704         1         0      8713         1         0      8716         1         0
      8719         1         0      8722         1         0      8725         1         0
      8728         1         0      8731         1         0      8733         1         0
      8736         1         0      8738         1         0      8741         1         0
      8744         1         0      8747         1         0      8750         1         0
      8753         1         0      8757         1         0      8760         1         0
      8763         1         0      8766         1         0      8769         1         0
      8772         1         0      8775         1         0      8778         1         0
      8781         1         0      8784         1         0      8787         1         0
      8790         1         0      8793         1         0      8796         1         0
      8800         2         0      8807         2         0      8818         1         0
      8826         1         0      8835         1         0      8838         1         0
      8841         1         0      8844         1         0      8847         1         0
      8850         1         0      8853         1         0      8855         1         0
      8858         1         0      8860         1         0      8863         1         0
      8866         1         0      8869         1         0      8872         1         0
      8875         1         0      8879         1         0      8882         1         0
      8885         1         0      8888         1         0      8891         1         0
      8894         1         0      8897         1         0      8900         1         0
      8903         1         0      8906         1         0      8909         1         0
      8912         1         0      8915         1         0      8918         1         0
      8922         2         0      8929         2         0      8940         1         0
      8948         1         0      8957         1         0      8960         1         0
      8963         1         0      8966         1         0      8969         1         0
      8972         1         0      8975         1         0      8977         1         0
      8980         1         0      8982         1         0      8985         1         0
      8988         1         0      8991         1         0      8994         1         0
      8997         1         0      9001         1         0      9004         1         0
      9007         1         0      9010         1         0      9013         1         0
      9016         1         0      9019         1         0      9022         1         0
      9025         1         0      9028         1         0      9031         1         0
      9034         1         0      9037         1         0      9040         1         0
      9044         1         0      9049         1         0      9053         2         0
      9064         1         0      9072         1         0      9081         1         0
      9084         1         0      9087         1         0      9090         1         0
      9093         1         0      9096         1         0      9099         1         0
      9101         1         0      9103         1         0      9106         1         0
      9109         1         0      9112         1         0      9115         1         0
      9118         1         0      9122         1         0      9125         1         0
      9128         1         0      9131         1         0      9134         1         0
      9137         1         0      9140         1         0      9143         1         0
      9146         1         0      9149         1         0      9152         1         0
      9155         1         0      9158         1         0      9161         1         0
      9165         2         0      9172         2         0      9183         1         0
      9191         1         0      9200         1         0      9203         1         0
      9206         1         0      9209         1         0      9212         1         0
      9215         1         0      9218         1         0      9220         1         0
      9222         1         0      9225         1         0      9228         1         0
      9231         1         0      9234         1         0      9237         1         0
      9240         1         0      9243         1         0      9247         1         0
      9250         1         0      9253         1         0      9256         1         0
      9259         1         0      9262         1         0      9265         1         0
      9268         1         0      9271         1         0      9274         1         0
      9277         1         0      9280         1         0      9283         1         0
      9286         1         0      9290         2         0      9297         2         0
      9308         1         0      9316         1         0      9325         1         0
      9328         1         0      9331         1         0      9334         1         0
      9337         1         0      9340         1         0      9343         1         0
      9345         1         0      9348         1         0      9350         1         0
      9353         1         0      9356         1         0      9359         1         0
      9362         1         0      9365         1         0      9369         1         0
      9372         1         0      9375         1         0      9378         1         0
      9381         1         0      9384         1         0      9387         1         0
      9390         1         0      9393         1         0      9396         1         0
      9399         1         0      9402         1         0      9405         1         0
      9409         2         0      9416         2         0      9427         1         0
      9435         1         0      9444         1         0      9447         1         0
      9450         1         0      9453         1         0      9456         1         0
      9459         1         0      9462         1         0      9464         1         0
      9467         1         0      9469         1         0      9472         1         0
      9475         1         0      9478         1         0      9481         1         0
      9484         1         0      9488         1         0      9491         1         0
      9494         1         0      9497         1         0      9500         1         0
      9503         1         0      9506         1         0      9509         1         0
      9512         1         0      9515         1         0      9518         1         0
      9521         1         0      9524         1         0      9527         1         0
      9531         2         0      9538         2         0      9549         1         0
      9557         1         0      9566         1         0      9569         1         0
      9572         1         0      9575         1         0      9578         1         0
      9581         1         0      9584         1         0      9586         1         0
      9588         1         0      9591         1         0      9594         1         0
      9597         1         0      9600         1         0      9603         1         0
      9606         1         0      9609         1         0      9613         1         0
      9616         1         0      9619         1         0      9622         1         0
      9625         1         0      9628         1         0      9631         1         0
      9634         1         0      9637         1         0      9640         1         0
      9643         1         0      9646         1         0      9649         1         0
      9652         1         0      9656         2         0      9663         2         0
      9674         1         0      9682         1         0      9691         1         0
      9694         1         0      9697         1         0      9700         1         0
      9703         1         0      9706         1         0      9709         1         0
      9711         1         0      9714         1         0      9716         1         0
      9719         1         0      9722         1         0      9725         1         0
      9728         1         0      9731         1         0      9735         1         0
      9738         1         0      9741         1         0      9744         1         0
      9747         1         0      9750         1         0      9753         1         0
      9756         1         0      9759         1         0      9762         1         0
      9765         1         0      9768         1         0      9771         1         0
      9775         2         0      9782         2         0      9793         1         0
      9801         1         0      9810         1         0      9813         1         0
      9816         1         0      9819         1         0      9822         1         0
      9825         1         0      9828         1         0      9830         1         0
      9833         1         0      9835         1         0      9838         1         0
      9841         1         0      9844         1         0      9847         1         0
      9850         1         0      9854         1         0      9857         1         0
      9860         1         0      9863         1         0      9866         1         0
      9869         1         0      9872         1         0      9875         1         0
      9878         1         0      9881         1         0      9884         1         0
      9887         1         0      9890         1         0      9893         1         0
      9897         2         0      9904         2         0      9915         1         0
      9923         1         0      9932         1         0      9935         1         0
      9938         1         0      9941         1         0      9944         1         0
      9947         1         0      9950         1         0      9952         1         0
      9955         1         0      9957         1         0      9960         1         0
      9963         1         0      9966         1         0      9969         1         0
      9972         1         0      9976         1         0      9979         1         0
      9982         1         0      9985         1         0      9988         1         0
      9991         1         0      9994         1         0      9997         1         0
     10000         1         0     10003         1         0     10006         1         0
     10009         1         0     10012         1         0     10016         2         0
     10023         2         0     10034         1         0     10042         1         0
     10051         1         0     10054         1         0     10057         1         0
     10060         1         0     10063         1         0     10066         1         0
     10069         1         0     10071         1         0     10074         1         0
     10076         1         0     10079         1         0     10082         1         0
     10085         1         0     10088         1         0     10091         1         0
     10095         1         0     10098         1         0     10101         1         0
     10104         1         0     10107         1         0     10110         1         0
     10113         1         0     10116         1         0     10119         1         0
     10122         1         0     10125         1         0     10128         1         0
     10131         1         0     10134         1         0     10138         2         0
     10145         2         0     10156         1         0     10164         1         0
     10173         1         0     10176         1         0     10179         1         0
     10182         1         0     10185         1         0     10188         1         0
     10191         1         0     10193         1         0     10196         1         0
     10198         1         0     10201         1         0     10204         1         0
     10207         1         0     10210         1         0     10213         1         0
     10217         1         0     10220         1         0     10223         1         0
     10226         1         0     10229         1         0     10232         1         0
     10235         1         0     10238         1         0     10241         1         0
     10244         1         0     10247         1         0     10250         1         0
     10253         1         0     10257         2         0     10264         2         0
     10275         1         0     10283         1         0     10292         1         0
     10295         1         0     10298         1         0     10301         1         0
     10304         1         0     10307         1         0     10310         1         0
     10312         1         0     10314         1         0     10317         1         0
     10320         1         0     10323         1         0     10326         1         0
     10329         1         0     10332         1         0     10335         1         0
     10339         1         0     10342         1         0     10345         1         0
     10348         1         0     10351         1         0     10354         1         0
     10357         1         0     10360         1         0     10363         1         0
     10366         1         0     10369         1         0     10372         1         0
     10375         1         0     10378         1         0     10382         2         0
     10389         2         0     10400         1         0     10408         1         0
     10417         1         0     10420         1         0     10423         1         0
     10426         1         0     10429         1         0     10432         1         0
     10435         1         0     10437         1         0     10439         1         0
     10442         1         0     10445         1         0     10448         1         0
     10451         1         0     10454         1         0     10457         1         0
     10460         1         0     10464         1         0     10467         1         0
     10470         1         0     10473         1         0     10476         1         0
     10479         1         0     10482         1         0     10485         1         0
     10488         1         0     10491         1         0     10494         1         0
     10497         1         0     10500         1         0     10503         1         0
     10507         2         0     10514         2         0     10525         1         0
     10533         1         0     10542         1         0     10545         1         0
     10548         1         0     10551         1         0     10554         1         0
     10557         1         0     10560         1         0     10562         1         0
     10565         1         0     10567         1         0     10570         1         0
     10573         1         0     10576         1         0     10579         1         0
     10582         1         0     10586         1         0     10589         1         0
     10592         1         0     10595         1         0     10598         1         0
     10601         1         0     10604         1         0     10607         1         0
     10610         1         0     10613         1         0     10616         1         0
     10619         1         0     10622         1         0     10626         2         0
     10633         2         0     10644         1         0     10652         1         0
     10661         1         0     10664         1         0     10667         1         0
     10670         1         0     10673         1         0     10676         1         0
     10679         1         0     10681         1         0     10684         1         0
     10686         1         0     10689         1         0     10692         1         0
     10695         1         0     10698         1         0     10701         1         0
     10705         1         0     10708         1         0     10711         1         0
     10714         1         0     10717         1         0     10720         1         0
     10723         1         0     10726         1         0     10729         1         0
     10732         1         0     10735         1         0     10738         1         0
     10741         1         0     10744         1         0     10748         2         0
     10755         2         0     10766         1         0     10774         1         0
     10783         1         0     10786         1         0     10789         1         0
     10792         1         0     10795         1         0     10798         1         0
     10801         1         0     10803         1         0     10806         1         0
     10808         1         0     10811         1         0     10814         1         0
     10817         1         0     10820         1         0     10823         1         0
     10827         1         0     10830         1         0     10833         1         0
     10836         1         0     10839         1         0     10842         1         0
     10845         1         0     10848         1         0     10851         1         0
     10854         1         0     10857         1         0     10860         1         0
     10863         1         0     10866         1         0     10870         2         0
     10877         2         0     10888         1         0     10896         1         0
     10905         1         0     10908         1         0     10911         1         0
     10914         1         0     10917         1         0     10920         1         0
     10923         1         0     10925         1         0     10928         1         0
     10930         1         0     10933         1         0     10936         1         0
     10939         1         0     10942         1         0     10945         1         0
     10949         1         0     10952         1         0     10955         1         0
     10958         1         0     10961         1         0     10964         1         0
     10967         1         0     10970         1         0     10973         1         0
     10976         1         0     10979         1         0     10982         1         0
     10985         1         0     10988         1         0     10992         2         0
     11003         1         0     11007         2         0     11018         1         0
     11026         1         0     11035         1         0     11043         1         0
     11052         1         0     11055         1         0     11058         1         0
     11061         1         0     11064         1         0     11067         1         0
     11070         1         0     11073         1         0     11076         1         0
     11078         1         0     11080         1         0     11083         1         0
     11086         1         0     11089         1         0     11092         1         0
     11095         1         0     11099         1         0     11102         1         0
     11105         1         0     11108         1         0     11111         1         0
     11114         1         0     11117         1         0     11120         1         0
     11123         1         0     11126         1         0     11129         1         0
     11132         1         0     11135         1         0     11138         1         0
     11142         1         0     11145         1         0     11148         1         0
     11151         1         0     11154         1         0     11157         1         0
     11160         1         0     11163         1         0     11166         1         0
     11168         1         0     11170         1         0     11173         1         0
     11176         1         0     11179         1         0     11182         1         0
     11185         1         0     11189         1         0     11192         1         0
     11195         1         0     11198         1         0     11201         1         0
     11204         1         0     11207         1         0     11210         1         0
     11213         1         0     11216         1         0     11219         1         0
     11222         1         0     11225         1         0     11228         1         0
     11232         2         0     11239         2         0     11250         1         0
     11258         1         0     11267         1         0     11270         1         0
     11273         1         0     11276         1         0     11279         1         0
     11282         1         0     11285         1         0     11287         1         0
     11290         1         0     11292         1         0     11295         1         0
     11298         1         0     11301         1         0     11304         1         0
     11307         1         0     11311         1         0     11314         1         0
     11317         1         0     11320         1         0     11323         1         0
     11326         1         0     11329         1         0     11332         1         0
     11335         1         0     11338         1         0     11341         1         0
     11344         1         0     11347         1         0     11350         1         0
     11354         2         0     11361         2         0     11372         1         0
     11380         1         0     11389         1         0     11392         1         0
     11395         1         0     11398         1         0     11401         1         0
     11404         1         0     11407         1         0     11409         1         0
     11412         1         0     11414         1         0     11417         1         0
     11420         1         0     11423         1         0     11426         1         0
     11429         1         0     11433         1         0     11436         1         0
     11439         1         0     11442         1         0     11445         1         0
     11448         1         0     11451         1         0     11454         1         0
     11457         1         0     11460         1         0     11463         1         0
     11466         1         0     11469         1         0     11472         1         0
     11476         2         0     11483         2         0     11494         1         0
     11502         1         0     11511         1         0     11514         1         0
     11517         1         0     11520         1         0     11523         1         0
     11526         1         0     11529         1         0     11531         1         0
     11534         1         0     11536         1         0     11539         1         0
     11542         1         0     11545         1         0     11548         1         0
     11551         1         0     11555         1         0     11558         1         0
     11561         1         0     11564         1         0     11567         1         0
     11570         1         0     11573         1         0     11576         1         0
     11579         1         0     11582         1         0     11585         1         0
     11588         1         0     11591         1         0     11594         1         0
     11598         2         0     11605         2         0     11616         1         0
     11624         1         0     11633         1         0     11636         1         0
     11639         1         0     11642         1         0     11645         1         0
     11648         1         0     11651         1         0     11653         1         0
     11655         1         0     11658         1         0     11661         1         0
     11664         1         0     11667         1         0     11670         1         0
     11673         1         0     11676         1         0     11680         1         0
     11683         1         0     11686         1         0     11689         1         0
     11692         1         0     11695         1         0     11698         1         0
     11701         1         0     11704         1         0     11707         1         0
     11710         1         0     11713         1         0     11716         1         0
     11719         1         0     11723         2         0     11730         2         0
     11741         1         0     11749         1         0     11758         1         0
     11761         1         0     11764         1         0     11767         1         0
     11770         1         0     11773         1         0     11776         1         0
     11778         1         0     11781         1         0     11783         1         0
     11786         1         0     11789         1         0     11792         1         0
     11795         1         0     11798         1         0     11802         1         0
     11805         1         0     11808         1         0     11811         1         0
     11814         1         0     11817         1         0     11820         1         0
     11823         1         0     11826         1         0     11829         1         0
     11832         1         0     11835         1         0     11838         1         0
     11841         1         0     11845         2         0     11852         2         0
     11863         1         0     11871         1         0     11880         1         0
     11883         1         0     11886         1         0     11889         1         0
     11892         1         0     11895         1         0     11898         1         0
     11900         1         0     11902         1         0     11905         1         0
     11908         1         0     11911         1         0     11914         1         0
     11917         1         0     11921         1         0     11924         1         0
     11927         1         0     11930         1         0     11933         1         0
     11936         1         0     11939         1         0     11941         1         0
     11943         1         0     11946         1         0     11949         1         0
     11952         1         0     11955         1         0     11958         1         0
     11961         1         0     11964         1         0     11968         2         0
     11975         2         0     11986         1         0     11994         1         0
     12003         1         0     12006         1         0     12009         1         0
     12012         1         0     12015         1         0     12018         1         0
     12021         1         0     12023         1         0     12026         1         0
     12028         1         0     12031         1         0     12034         1         0
     12037         1         0     12040         1         0     12043         1         0
     12047         1         0     12050         1         0     12053         1         0
     12056         1         0     12059         1         0     12062         1         0
     12065         1         0     12068         1         0     12071         1         0
     12074         1         0     12077         1         0     12080         1         0
     12083         1         0     12087         1         0     12092         1         0
     12096         2         0     12107         1         0     12115         1         0
     12124         1         0     12127         1         0     12130         1         0
     12133         1         0     12136         1         0     12139         1         0
     12142         1         0     12144         1         0     12146         1         0
     12149         1         0     12152         1         0     12155         1         0
     12158         1         0     12161         1         0     12165         1         0
     12168         1         0     12171         1         0     12174         1         0
     12177         1         0     12180         1         0     12183         1         0
     12186         1         0     12189         1         0     12192         1         0
     12195         1         0     12198         1         0     12201         1         0
     12204         1         0     12208         2         0     12215         2         0
     12226         1         0     12234         1         0     12243         1         0
     12246         1         0     12249         1         0     12252         1         0
     12255         1         0     12258         1         0     12261         1         0
     12263         1         0     12265         1         0     12268         1         0
     12271         1         0     12274         1         0     12277         1         0
     12280         1         0     12283         1         0     12286         1         0
     12290         1         0     12293         1         0     12296         1         0
     12299         1         0     12302         1         0     12305         1         0
     12308         1         0     12311         1         0     12314         1         0
     12317         1         0     12320         1         0     12323         1         0
     12326         1         0     12329         1         0     12333         2         0
     12340         2         0     12351         1         0     12359         1         0
     12368         1         0     12371         1         0     12374         1         0
     12377         1         0     12380         1         0     12383         1         0
     12386         1         0     12388         1         0     12390         1         0
     12393         1         0     12396         1         0     12399         1         0
     12402         1         0     12405         1         0     12408         1         0
     12411         1         0     12415         1         0     12418         1         0
     12421         1         0     12424         1         0     12427         1         0
     12430         1         0     12433         1         0     12436         1         0
     12439         1         0     12442         1         0     12445         1         0
     12448         1         0     12451         1         0     12454         1         0
     12458         1         0     12463         1         0     12467         2         0
     12478         1         0     12486         1         0     12495         1         0
     12498         1         0     12501         1         0     12504         1         0
     12507         1         0     12510         1         0     12513         1         0
     12515         1         0     12518         1         0     12520         1         0
     12523         1         0     12526         1         0     12529         1         0
     12532         1         0     12535         1         0     12539         1         0
     12542         1         0     12545         1         0     12548         1         0
     12551         1         0     12554         1         0     12557         1         0
     12560         1         0     12563         1         0     12566         1         0
     12569         1         0     12572         1         0     12575         1         0
     12578         1         0     12582         2         0     12589         2         0
     12600         1         0     12608         1         0     12617         1         0
     12620         1         0     12623         1         0     12626         1         0
     12629         1         0     12632         1         0     12635         1         0
     12637         1         0     12639         1         0     12642         1         0
     12645         1         0     12648         1         0     12651         1         0
     12654         1         0     12657         1         0     12660         1         0
     12664         1         0     12667         1         0     12670         1         0
     12673         1         0     12676         1         0     12679         1         0
     12682         1         0     12685         1         0     12688         1         0
     12691         1         0     12694         1         0     12697         1         0
     12700         1         0     12703         1         0     12707         2         0
     12714         2         0     12725         1         0     12733         1         0
     12742         1         0     12745         1         0     12748         1         0
     12751         1         0     12754         1         0     12757         1         0
     12760         1         0     12762         1         0     12765         1         0
     12767         1         0     12770         1         0     12773         1         0
     12776         1         0     12779         1         0     12782         1         0
     12786         1         0     12789         1         0     12792         1         0
     12795         1         0     12798         1         0     12801         1         0
     12804         1         0     12807         1         0     12810         1         0
     12813         1         0     12816         1         0     12819         1         0
     12822         1         0     12825         1         0     12829         2         0
     12836         2         0     12847         1         0     12855         1         0
     12864         1         0     12867         1         0     12870         1         0
     12873         1         0     12876         1         0     12879         1         0
     12882         1         0     12884         1         0     12887         1         0
     12889         1         0     12892         1         0     12895         1         0
     12898         1         0     12901         1         0     12904         1         0
     12908         1         0     12911         1         0     12914         1         0
     12917         1         0     12920         1         0     12923         1         0
     12926         1         0     12929         1         0     12932         1         0
     12935         1         0     12938         1         0     12941         1         0
     12944         1         0     12947         1         0     12951         2         0
     12958         2         0     12969         1         0     12977         1         0
     12986         1         0     12989         1         0     12992         1         0
     12995         1         0     12998         1         0     13001         1         0
     13004         1         0     13006         1         0     13009         1         0
     13011         1         0     13014         1         0     13017         1         0
     13020         1         0     13023         1         0     13026         1         0
     13030         1         0     13033         1         0     13036         1         0
     13039         1         0     13042         1         0     13045         1         0
     13048         1         0     13051         1         0     13054         1         0
     13057         1         0     13060         1         0     13063         1         0
     13066         1         0     13070         2         0     13077         2         0
     13088         1         0     13096         1         0     13105         1         0
     13108         1         0     13111         1         0     13114         1         0
     13117         1         0     13120         1         0     13123         1         0
     13125         1         0     13128         1         0     13130         1         0
     13133         1         0     13136         1         0     13139         1         0
     13142         1         0     13145         1         0     13149         1         0
     13152         1         0     13155         1         0     13158         1         0
     13161         1         0     13164         1         0     13167         1         0
     13170         1         0     13173         1         0     13176         1         0
     13179         1         0     13182         1         0     13185         1         0
     13189         2         0     13196         2         0     13207         1         0
     13215         1         0     13224         1         0     13227         1         0
     13230         1         0     13233         1         0     13236         1         0
     13239         1         0     13242         1         0     13244         1         0
     13247         1         0     13249         1         0     13252         1         0
     13255         1         0     13258         1         0     13261         1         0
     13264         1         0     13268         1         0     13271         1         0
     13274         1         0     13277         1         0     13280         1         0
     13283         1         0     13286         1         0     13289         1         0
     13292         1         0     13295         1         0     13298         1         0
     13301         1         0     13304         1         0     13307         1         0
     13311         2         0     13318         2         0     13329         1         0
     13337         1         0     13346         1         0     13349         1         0
     13352         1         0     13355         1         0     13358         1         0
     13361         1         0     13364         1         0     13366         1         0
     13369         1         0     13371         1         0     13374         1         0
     13377         1         0     13380         1         0     13383         1         0
     13386         1         0     13390         1         0     13393         1         0
     13396         1         0     13399         1         0     13402         1         0
     13405         1         0     13408         1         0     13411         1         0
     13414         1         0     13417         1         0     13420         1         0
     13423         1         0     13426         1         0     13429         1         0
     13433         2         0     13440         2         0     13451         1         0
     13459         1         0     13468         1         0     13471         1         0
     13474         1         0     13477         1         0     13480         1         0
     13483         1         0     13486         1         0     13488         1         0
     13491         1         0     13493         1         0     13496         1         0
     13499         1         0     13502         1         0     13505         1         0
     13508         1         0     13512         1         0     13515         1         0
     13518         1         0     13521         1         0     13524         1         0
     13527         1         0     13530         1         0     13533         1         0
     13536         1         0     13539         1         0     13542         1         0
     13545         1         0     13548         1         0     13551         1         0
     13555         2         0     13562         2         0     13573         1         0
     13581         1         0     13590         1         0     13593         1         0
     13596         1         0     13599         1         0     13602         1         0
     13605         1         0     13608         1         0     13610         1         0
     13613         1         0     13615         1         0     13618         1         0
     13621         1         0     13624         1         0     13627         1         0
     13630         1         0     13634         1         0     13637         1         0
     13640         1         0     13643         1         0     13646         1         0
     13649         1         0     13652         1         0     13655         1         0
     13658         1         0     13661         1         0     13664         1         0
     13667         1         0     13670         1         0     13673         1         0
     13677         2         0     13684         2         0     13695         1         0
     13703         1         0     13712         1         0     13715         1         0
     13718         1         0     13721         1         0     13724         1         0
     13727         1         0     13730         1         0     13732         1         0
     13735         1         0     13737         1         0     13740         1         0
     13743         1         0     13746         1         0     13749         1         0
     13752         1         0     13756         1         0     13759         1         0
     13762         1         0     13765         1         0     13768         1         0
     13771         1         0     13774         1         0     13777         1         0
     13780         1         0     13783         1         0     13786         1         0
     13789         1         0     13792         1         0     13795         1         0
     13799         2         0     13806         2         0     13817         1         0
     13825         1         0     13834         1         0     13837         1         0
     13840         1         0     13843         1         0     13846         1         0
     13849         1         0     13852         1         0     13854         1         0
     13857         1         0     13859         1         0     13862         1         0
     13865         1         0     13868         1         0     13871         1         0
     13874         1         0     13878         1         0     13881         1         0
     13884         1         0     13887         1         0     13890         1         0
     13893         1         0     13896         1         0     13899         1         0
     13902         1         0     13905         1         0     13908         1         0
     13911         1         0     13914         1         0     13918         1         0
     13923         1         0     13927         2         0     13938         1         0
     13946         1         0     13955         1         0     13958         1         0
     13961         1         0     13964         1         0     13967         1         0
     13970         1         0     13973         1         0     13975         1         0
     13978         1         0     13980         1         0     13983         1         0
     13986         1         0     13989         1         0     13992         1         0
     13995         1         0     13999         1         0     14002         1         0
     14005         1         0     14008         1         0     14011         1         0
     14014         1         0     14017         1         0     14020         1         0
     14023         1         0     14026         1         0     14029         1         0
     14032         1         0     14035         1         0     14038         1         0
     14042         2         0     14049         2         0     14060         1         0
     14068         1         0     14077         1         0     14080         1         0
     14083         1         0     14086         1         0     14089         1         0
     14092         1         0     14095         1         0     14097         1         0
     14099         1         0     14102         1         0     14105         1         0
     14108         1         0     14111         1         0     14114         1         0
     14117         1         0     14120         1         0     14124         1         0
     14127         1         0     14130         1         0     14133         1         0
     14136         1         0     14139         1         0     14142         1         0
     14145         1         0     14148         1         0     14151         1         0
     14154         1         0     14157         1         0     14160         1         0
     14163         1         0     14167         2         0     14174         2         0
     14185         1         0     14193         1         0     14202         1         0
     14205         1         0     14208         1         0     14211         1         0
     14214         1         0     14217         1         0     14220         1         0
     14222         1         0     14225         1         0     14227         1         0
     14230         1         0     14233         1         0     14236         1         0
     14239         1         0     14242         1         0     14246         1         0
     14249         1         0     14252         1         0     14255         1         0
     14258         1         0     14261         1         0     14264         1         0
     14267         1         0     14270         1         0     14273         1         0
     14276         1         0     14279         1         0     14282         1         0
     14285         1         0     14289         2         0     14296         2         0
     14307         1         0     14315         1         0     14324         1         0
     14327         1         0     14330         1         0     14333         1         0
     14336         1         0     14339         1         0     14342         1         0
     14344         1         0     14346         1         0     14349         1         0
     14352         1         0     14355         1         0     14358         1         0
     14361         1         0     14364         1         0     14367         1         0
     14371         1         0     14374         1         0     14377         1         0
     14380         1         0     14383         1         0     14386         1         0
     14389         1         0     14392         1         0     14395         1         0
     14398         1         0     14401         1         0     14404         1         0
     14407         1         0     14410         1         0     14414         1         0
     14419         1         0     14423         2         0     14434         1         0
     14442         1         0     14451         1         0     14454         1         0
     14457         1         0     14460         1         0     14463         1         0
     14466         1         0     14469         1         0     14471         1         0
     14474         1         0     14476         1         0     14479         1         0
     14482         1         0     14485         1         0     14488         1         0
     14491         1         0     14495         1         0     14498         1         0
     14501         1         0     14504         1         0     14507         1         0
     14510         1         0     14513         1         0     14516         1         0
     14519         1         0     14522         1         0     14525         1         0
     14528         1         0     14531         1         0     14534         1         0
     14538         2         0     14545         2         0     14556         1         0
     14564         1         0     14573         1         0     14576         1         0
     14579         1         0     14582         1         0     14585         1         0
     14588         1         0     14591         1         0     14593         1         0
     14596         1         0     14598         1         0     14601         1         0
     14604         1         0     14607         1         0     14610         1         0
     14613         1         0     14617         1         0     14620         1         0
     14623         1         0     14626         1         0     14629         1         0
     14632         1         0     14635         1         0     14638         1         0
     14641         1         0     14644         1         0     14647         1         0
     14650         1         0     14653         1         0     14656         1         0
     14660         2         0     14667         2         0     14678         1         0
     14686         1         0     14695         1         0     14698         1         0
     14701         1         0     14704         1         0     14707         1         0
     14710         1         0     14713         1         0     14715         1         0
     14718         1         0     14720         1         0     14723         1         0
     14726         1         0     14729         1         0     14732         1         0
     14735         1         0     14739         1         0     14742         1         0
     14745         1         0     14748         1         0     14751         1         0
     14754         1         0     14757         1         0     14760         1         0
     14763         1         0     14766         1         0     14769         1         0
     14772         1         0     14775         1         0     14778         1         0
     14782         2         0     14789         2         0     14800         1         0
     14808         1         0     14817         1         0     14820         1         0
     14823         1         0     14826         1         0     14829         1         0
     14832         1         0     14835         1         0     14837         1         0
     14840         1         0     14842         1         0     14845         1         0
     14848         1         0     14851         1         0     14854         1         0
     14857         1         0     14861         1         0     14864         1         0
     14867         1         0     14870         1         0     14873         1         0
     14876         1         0     14879         1         0     14882         1         0
     14885         1         0     14888         1         0     14891         1         0
     14894         1         0     14897         1         0     14900         1         0
     14904         2         0     14911         2         0     14922         1         0
     14930         1         0     14939         1         0     14942         1         0
     14945         1         0     14948         1         0     14951         1         0
     14954         1         0     14957         1         0     14959         1         0
     14961         1         0     14964         1         0     14967         1         0
     14970         1         0     14973         1         0     14976         1         0
     14980         1         0     14983         1         0     14986         1         0
     14989         1         0     14992         1         0     14995         1         0
     14998         1         0     15000         1         0     15002         1         0
     15005         1         0     15008         1         0     15011         1         0
     15014         1         0     15017         1         0     15020         1         0
     15023         1         0     15027         2         0     15038         1         0
     15042         2         0     15053         1         0     15061         1         0
     15070         1         0     15078         1         0     15087         1         0
     15090         1         0     15093         1         0     15096         1         0
     15099         1         0     15102         1         0     15105         1         0
     15108         1         0     15111         1         0     15113         1         0
     15115         1         0     15118         1         0     15121         1         0
     15124         1         0     15127         1         0     15130         1         0
     15134         1         0     15137         1         0     15140         1         0
     15143         1         0     15146         1         0     15149         1         0
     15152         1         0     15155         1         0     15158         1         0
     15161         1         0     15164         1         0     15167         1         0
     15170         1         0     15173         1         0     15177         1         0
     15180         1         0     15183         1         0     15186         1         0
     15189         1         0     15192         1         0     15195         1         0
     15198         1         0     15201         1         0     15203         1         0
     15205         1         0     15208         1         0     15211         1         0
     15214         1         0     15217         1         0     15220         1         0
     15224         1         0     15227         1         0     15230         1         0
     15233         1         0     15236         1         0     15239         1         0
     15242         1         0     15245         1         0     15248         1         0
     15251         1         0     15254         1         0     15257         1         0
     15260         1         0     15263         1         0     15267         2         0
     15274         2         0     15285         1         0     15293         1         0
     15302         1         0     15305         1         0     15308         1         0
     15311         1         0     15314         1         0     15317         1         0
     15320         1         0     15322         1         0     15325         1         0
     15327         1         0     15330         1         0     15333         1         0
     15336         1         0     15339         1         0     15342         1         0
     15346         1         0     15349         1         0     15352         1         0
     15355         1         0     15358         1         0     15361         1         0
     15364         1         0     15367         1         0     15370         1         0
     15373         1         0     15376         1         0     15379         1         0
     15382         1         0     15385         1         0     15389         2         0
     15396         2         0     15407         1         0     15415         1         0
     15424         1         0     15427         1         0     15430         1         0
     15433         1         0     15436         1         0     15439         1         0
     15442         1         0     15444         1         0     15446         1         0
     15449         1         0     15452         1         0     15455         1         0
     15458         1         0     15461         1         0     15465         1         0
     15468         1         0     15471         1         0     15474         1         0
     15477         1         0     15480         1         0     15483         1         0
     15485         1         0     15487         1         0     15490         1         0
     15493         1         0     15496         1         0     15499         1         0
     15502         1         0     15505         1         0     15508         1         0
     15512         2         0     15519         2         0     15530         1         0
     15538         1         0     15547         1         0     15550         1         0
     15553         1         0     15556         1         0     15559         1         0
     15562         1         0     15565         1         0     15567         1         0
     15570         1         0     15572         1         0     15575         1         0
     15578         1         0     15581         1         0     15584         1         0
     15587         1         0     15591         1         0     15594         1         0
     15597         1         0     15600         1         0     15603         1         0
     15606         1         0     15609         1         0     15612         1         0
     15615         1         0     15618         1         0     15621         1         0
     15624         1         0     15627         1         0     15630         1         0
     15634         2         0     15641         2         0     15652         1         0
     15660         1         0     15669         1         0     15672         1         0
     15675         1         0     15678         1         0     15681         1         0
     15684         1         0     15687         1         0     15689         1         0
     15692         1         0     15694         1         0     15697         1         0
     15700         1         0     15703         1         0     15706         1         0
     15709         1         0     15713         1         0     15716         1         0
     15719         1         0     15722         1         0     15725         1         0
     15728         1         0     15731         1         0     15734         1         0
     15737         1         0     15740         1         0     15743         1         0
     15746         1         0     15749         1         0     15752         1         0
     15756         2         0     15763         2         0     15774         1         0
     15782         1         0     15791         1         0     15794         1         0
     15797         1         0     15800         1         0     15803         1         0
     15806         1         0     15809         1         0     15811         1         0
     15814         1         0     15816         1         0     15819         1         0
     15822         1         0     15825         1         0     15828         1         0
     15831         1         0     15835         1         0     15838         1         0
     15841         1         0     15844         1         0     15847         1         0
     15850         1         0     15853         1         0     15856         1         0
     15859         1         0     15862         1         0     15865         1         0
     15868         1         0     15871         1         0     15875         1         0
     15880         1         0     15884         2         0     15895         1         0
     15903         1         0     15912         1         0     15915         1         0
     15918         1         0     15921         1         0     15924         1         0
     15927         1         0     15930         1         0     15932         1         0
     15934         1         0     15937         1         0     15940         1         0
     15943         1         0     15946         1         0     15949         1         0
     15953         1         0     15956         1         0     15959         1         0
     15962         1         0     15965         1         0     15968         1         0
     15971         1         0     15974         1         0     15977         1         0
     15980         1         0     15983         1         0     15986         1         0
     15989         1         0     15992         1         0     15996         1         0
     16001         1         0     16005         2         0     16016         1         0
     16024         1         0     16033         1         0     16036         1         0
     16039         1         0     16042         1         0     16045         1         0
     16048         1         0     16051         1         0     16053         1         0
     16055         1         0     16058         1         0     16061         1         0
     16064         1         0     16067         1         0     16070         1         0
     16074         1         0     16077         1         0     16080         1         0
     16083         1         0     16086         1         0     16089         1         0
     16092         1         0     16095         1         0     16098         1         0
     16101         1         0     16104         1         0     16107         1         0
     16110         1         0     16113         1         0     16117         2         0
     16124         2         0     16135         1         0     16143         1         0
     16152         1         0     16155         1         0     16158         1         0
     16161         1         0     16164         1         0     16167         1         0
     16170         1         0     16172         1         0     16175         1         0
     16177         1         0     16180         1         0     16183         1         0
     16186         1         0     16189         1         0     16192         1         0
     16196         1         0     16199         1         0     16202         1         0
     16205         1         0     16208         1         0     16211         1         0
     16214         1         0     16217         1         0     16220         1         0
     16223         1         0     16226         1         0     16229         1         0
     16232         1         0     16235         1         0     16239         2         0
     16246         2         0     16257         1         0     16265         1         0
     16274         1         0     16277         1         0     16280         1         0
     16283         1         0     16286         1         0     16289         1         0
     16292         1         0     16294         1         0     16297         1         0
     16299         1         0     16302         1         0     16305         1         0
     16308         1         0     16311         1         0     16314         1         0
     16318         1         0     16321         1         0     16324         1         0
     16327         1         0     16330         1         0     16333         1         0
     16336         1         0     16339         1         0     16342         1         0
     16345         1         0     16348         1         0     16351         1         0
     16354         1         0     16358         2         0     16365         2         0
     16376         1         0     16384         1         0     16393         1         0
     16396         1         0     16399         1         0     16402         1         0
     16405         1         0     16408         1         0     16411         1         0
     16413         1         0     16416         1         0     16418         1         0
     16421         1         0     16424         1         0     16427         1         0
     16430         1         0     16433         1         0     16437         1         0
     16440         1         0     16443         1         0     16446         1         0
     16449         1         0     16452         1         0     16455         1         0
     16458         1         0     16461         1         0     16464         1         0
     16467         1         0     16470         1         0     16473         1         0
     16476         1         0     16480         2         0     16487         2         0
     16498         1         0     16506         1         0     16515         1         0
     16518         1         0     16521         1         0     16524         1         0
     16527         1         0     16530         1         0     16533         1         0
     16535         1         0     16538         1         0     16540         1         0
     16543         1         0     16546         1         0     16549         1         0
     16552         1         0     16555         1         0     16559         1         0
     16562         1         0     16565         1         0     16568         1         0
     16571         1         0     16574         1         0     16577         1         0
     16580         1         0     16583         1         0     16586         1         0
     16589         1         0     16592         1         0     16595         1         0
     16599         2         0     16606         2         0     16617         1         0
     16625         1         0     16634         1         0     16637         1         0
     16640         1         0     16643         1         0     16646         1         0
     16649         1         0     16652         1         0     16654         1         0
     16656         1         0     16659         1         0     16662         1         0
     16665         1         0     16668         1         0     16671         1         0
     16675         1         0     16678         1         0     16681         1         0
     16684         1         0     16687         1         0     16690         1         0
     16693         1         0     16695         1         0     16697         1         0
     16700         1         0     16703         1         0     16706         1         0
     16709         1         0     16712         1         0     16715         1         0
     16718         1         0     16722         2         0     16729         2         0
     16740         1         0     16748         1         0     16757         1         0
     16760         1         0     16763         1         0     16766         1         0
     16769         1         0     16772         1         0     16775         1         0
     16777         1         0     16779         1         0     16782         1         0
     16785         1         0     16788         1         0     16791         1         0
     16794         1         0     16797         1         0     16800         1         0
     16804         1         0     16807         1         0     16810         1         0
     16813         1         0     16816         1         0     16819         1         0
     16822         1         0     16825         1         0     16828         1         0
     16831         1         0     16834         1         0     16837         1         0
     16840         1         0     16843         1         0     16847         2         0
     16854         2         0     16865         1         0     16873         1         0
     16882         1         0     16885         1         0     16888         1         0
     16891         1         0     16894         1         0     16897         1         0
     16900         1         0     16902         1         0     16904         1         0
     16907         1         0     16910         1         0     16913         1         0
     16916         1         0     16919         1         0     16923         1         0
     16926         1         0     16929         1         0     16932         1         0
     16935         1         0     16938         1         0     16941         1         0
     16943         1         0     16945         1         0     16948         1         0
     16951         1         0     16954         1         0     16957         1         0
     16960         1         0     16963         1         0     16966         1         0
     16970         2         0     16977         2         0     16988         1         0
     16996         1         0     17005         1         0     17008         1         0
     17011         1         0     17014         1         0     17017         1         0
     17020         1         0     17023         1         0     17025         1         0
     17028         1         0     17030         1         0     17033         1         0
     17036         1         0     17039         1         0     17042         1         0
     17045         1         0     17049         1         0     17052         1         0
     17055         1         0     17058         1         0     17061         1         0
     17064         1         0     17067         1         0     17070         1         0
     17073         1         0     17076         1         0     17079         1         0
     17082         1         0     17085         1         0     17088         1         0
     17092         2         0     17099         2         0     17110         1         0
     17118         1         0     17127         1         0     17130         1         0
     17133         1         0     17136         1         0     17139         1         0
     17142         1         0     17145         1         0     17147         1         0
     17149         1         0     17152         1         0     17155         1         0
     17158         1         0     17161         1         0     17164         1         0
     17167         1         0     17170         1         0     17174         1         0
     17177         1         0     17180         1         0     17183         1         0
     17186         1         0     17189         1         0     17192         1         0
     17195         1         0     17198         1         0     17201         1         0
     17204         1         0     17207         1         0     17210         1         0
     17213         1         0     17217         2         0     17224         2         0
     17235         1         0     17243         1         0     17252         1         0
     17255         1         0     17258         1         0     17261         1         0
     17264         1         0     17267         1         0     17270         1         0
     17272         1         0     17275         1         0     17277         1         0
     17280         1         0     17283         1         0     17286         1         0
     17289         1         0     17292         1         0     17296         1         0
     17299         1         0     17302         1         0     17305         1         0
     17308         1         0     17311         1         0     17314         1         0
     17317         1         0     17320         1         0     17323         1         0
     17326         1         0     17329         1         0     17332         1         0
     17335         1         0     17339         1         0     17344         1         0
     17348         2         0     17359         1         0     17367         1         0
     17376         1         0     17379         1         0     17382         1         0
     17385         1         0     17388         1         0     17391         1         0
     17394         1         0     17396         1         0     17399         1         0
     17401         1         0     17404         1         0     17407         1         0
     17410         1         0     17413         1         0     17416         1         0
     17420         1         0     17423         1         0     17426         1         0
     17429         1         0     17432         1         0     17435         1         0
     17438         1         0     17441         1         0     17444         1         0
     17447         1         0     17450         1         0     17453         1         0
     17456         1         0     17459         1         0     17463         2         0
     17470         2         0     17481         1         0     17489         1         0
     17498         1         0     17501         1         0     17504         1         0
     17507         1         0     17510         1         0     17513         1         0
     17516         1         0     17518         1         0     17521         1         0
     17523         1         0     17526         1         0     17529         1         0
     17532         1         0     17535         1         0     17538         1         0
     17542         1         0     17545         1         0     17548         1         0
     17551         1         0     17554         1         0     17557         1         0
     17560         1         0     17563         1         0     17566         1         0
     17569         1         0     17572         1         0     17575         1         0
     17578         1         0     17581         1         0     17585         1         0
     17590         1         0     17594         2         0     17605         1         0
     17613         1         0     17622         1         0     17625         1         0
     17628         1         0     17631         1         0     17634         1         0
     17637         1         0     17640         1         0     17642         1         0
     17645         1         0     17647         1         0     17650         1         0
     17653         1         0     17656         1         0     17659         1         0
     17662         1         0     17666         1         0     17669         1         0
     17672         1         0     17675         1         0     17678         1         0
     17681         1         0     17684         1         0     17687         1         0
     17690         1         0     17693         1         0     17696         1         0
     17699         1         0     17702         1         0     17705         1         0
     17709         2         0     17716         2         0     17727         1         0
     17735         1         0     17744         1         0     17747         1         0
     17750         1         0     17753         1         0     17756         1         0
     17759         1         0     17762         1         0     17764         1         0
     17767         1         0     17769         1         0     17772         1         0
     17775         1         0     17778         1         0     17781         1         0
     17784         1         0     17788         1         0     17791         1         0
     17794         1         0     17797         1         0     17800         1         0
     17803         1         0     17806         1         0     17809         1         0
     17812         1         0     17815         1         0     17818         1         0
     17821         1         0     17824         1         0     17827         1         0
     17831         2         0     17838         2         0     17849         1         0
     17857         1         0     17866         1         0     17869         1         0
     17872         1         0     17875         1         0     17878         1         0
     17881         1         0     17884         1         0     17886         1         0
     17889         1         0     17891         1         0     17894         1         0
     17897         1         0     17900         1         0     17903         1         0
     17906         1         0     17910         1         0     17913         1         0
     17916         1         0     17919         1         0     17922         1         0
     17925         1         0     17928         1         0     17931         1         0
     17934         1         0     17937         1         0     17940         1         0
     17943         1         0     17946         1         0     17950         2         0
     17957         2         0     17968         1         0     17976         1         0
     17985         1         0     17988         1         0     17991         1         0
     17994         1         0     17997         1         0     18000         1         0
     18003         1         0     18005         1         0     18008         1         0
     18010         1         0     18013         1         0     18016         1         0
     18019         1         0     18022         1         0     18025         1         0
     18029         1         0     18032         1         0     18035         1         0
     18038         1         0     18041         1         0     18044         1         0
     18047         1         0     18050         1         0     18053         1         0
     18056         1         0     18059         1         0     18062         1         0
     18065         1         0     18069         2         0     18076         2         0
     18087         1         0     18095         1         0     18104         1         0
     18107         1         0     18110         1         0     18113         1         0
     18116         1         0     18119         1         0     18122         1         0
     18124         1         0     18127         1         0     18129         1         0
     18132         1         0     18135         1         0     18138         1         0
     18141         1         0     18144         1         0     18148         1         0
     18151         1         0     18154         1         0     18157         1         0
     18160         1         0     18163         1         0     18166         1         0
     18169         1         0     18172         1         0     18175         1         0
     18178         1         0     18181         1         0     18184         1         0
     18187         1         0     18191         2         0     18198         2         0
     18209         1         0     18217         1         0     18226         1         0
     18229         1         0     18232         1         0     18235         1         0
     18238         1         0     18241         1         0     18244         1         0
     18246         1         0     18249         1         0     18251         1         0
     18254         1         0     18257         1         0     18260         1         0
     18263         1         0     18266         1         0     18270         1         0
     18273         1         0     18276         1         0     18279         1         0
     18282         1         0     18285         1         0     18288         1         0
     18291         1         0     18294         1         0     18297         1         0
     18300         1         0     18303         1         0     18306         1         0
     18309         1         0     18313         2         0     18320         2         0
     18331         1         0     18339         1         0     18348         1         0
     18351         1         0     18354         1         0     18357         1         0
     18360         1         0     18363         1         0     18366         1         0
     18368         1         0     18371         1         0     18373         1         0
     18376         1         0     18379         1         0     18382         1         0
     18385         1         0     18388         1         0     18392         1         0
     18395         1         0     18398         1         0     18401         1         0
     18404         1         0     18407         1         0     18410         1         0
     18413         1         0     18416         1         0     18419         1         0
     18422         1         0     18425         1         0     18428         1         0
     18431         1         0     18435         1         0     18440         1         0
     18444         2         0     18455         1         0     18463         1         0
     18472         1         0     18475         1         0     18478         1         0
     18481         1         0     18484         1         0     18487         1         0
     18490         1         0     18492         1         0     18494         1         0
     18497         1         0     18500         1         0     18503         1         0
     18506         1         0     18509         1         0     18513         1         0
     18516         1         0     18519         1         0     18522         1         0
     18525         1         0     18528         1         0     18531         1         0
     18534         1         0     18537         1         0     18540         1         0
     18543         1         0     18546         1         0     18549         1         0
     18552         1         0     18556         2         0     18563         2         0
     18574         1         0     18582         1         0     18591         1         0
     18594         1         0     18597         1         0     18600         1         0
     18603         1         0     18606         1         0     18609         1         0
     18611         1         0     18613         1         0     18616         1         0
     18619         1         0     18622         1         0     18625         1         0
     18628         1         0     18631         1         0     18634         1         0
     18638         1         0     18641         1         0     18644         1         0
     18647         1         0     18650         1         0     18653         1         0
     18656         1         0     18659         1         0     18662         1         0
     18665         1         0     18668         1         0     18671         1         0
     18674         1         0     18677         1         0     18681         2         0
     18688         2         0     18699         1         0     18707         1         0
     18716         1         0     18719         1         0     18722         1         0
     18725         1         0     18728         1         0     18731         1         0
     18734         1         0     18736         1         0     18739         1         0
     18741         1         0     18744         1         0     18747         1         0
     18750         1         0     18753         1         0     18756         1         0
     18760         1         0     18763         1         0     18766         1         0
     18769         1         0     18772         1         0     18775         1         0
     18778         1         0     18781         1         0     18784         1         0
     18787         1         0     18790         1         0     18793         1         0
     18796         1         0     18799         1         0     18803         2         0
     18810         2         0     18821         1         0     18829         1         0
     18838         1         0     18841         1         0     18844         1         0
     18847         1         0     18850         1         0     18853         1         0
     18856         1         0     18858         1         0     18861         1         0
     18863         1         0     18866         1         0     18869         1         0
     18872         1         0     18875         1         0     18878         1         0
     18882         1         0     18885         1         0     18888         1         0
     18891         1         0     18894         1         0     18897         1         0
     18900         1         0     18903         1         0     18906         1         0
     18909         1         0     18912         1         0     18915         1         0
     18918         1         0     18922         2         0     18929         2         0
     18940         1         0     18948         1         0     18957         1         0
     18960         1         0     18963         1         0     18966         1         0
     18969         1         0     18972         1         0     18975         1         0
     18977         1         0     18980         1         0     18982         1         0
     18985         1         0     18988         1         0     18991         1         0
     18994         1         0     18997         1         0     19001         1         0
     19004         1         0     19007         1         0     19010         1         0
     19013         1         0     19016         1         0     19019         1         0
     19022         1         0     19025         1         0     19028         1         0
     19031         1         0     19034         1         0     19037         1         0
     19040         1         0     19044         2         0     19051         2         0
     19062         1         0     19070         1         0     19079         1         0
     19082         1         0     19085         1         0     19088         1         0
     19091         1         0     19094         1         0     19097         1         0
     19099         1         0     19102         1         0     19104         1         0
     19107         1         0     19110         1         0     19113         1         0
     19116         1         0     19119         1         0     19123         1         0
     19126         1         0     19129         1         0     19132         1         0
     19135         1         0     19138         1         0     19141         1         0
     19144         1         0     19147         1         0     19150         1         0
     19153         1         0     19156         1         0     19159         1         0
     19162         1         0     19166         1         0     19171         1         0
     19175         2         0     19186         1         0     19194         1         0
     19203         1         0     19206         1         0     19209         1         0
     19212         1         0     19215         1         0     19218         1         0
     19221         1         0     19223         1         0     19225         1         0
     19228         1         0     19231         1         0     19234         1         0
     19237         1         0     19240         1         0     19244         1         0
     19247         1         0     19250         1         0     19253         1         0
     19256         1         0     19259         1         0     19262         1         0
     19265         1         0     19268         1         0     19271         1         0
     19274         1         0     19277         1         0     19280         1         0
     19283         1         0     19287         2         0     19294         2         0
     19305         1         0     19313         1         0     19322         1         0
     19325         1         0     19328         1         0     19331         1         0
     19334         1         0     19337         1         0     19340         1         0
     19342         1         0     19345         1         0     19347         1         0
     19350         1         0     19353         1         0     19356         1         0
     19359         1         0     19362         1         0     19366         1         0
     19369         1         0     19372         1         0     19375         1         0
     19378         1         0     19381         1         0     19384         1         0
     19387         1         0     19390         1         0     19393         1         0
     19396         1         0     19399         1         0     19402         1         0
     19405         1         0     19409         2         0     19416         2         0
     19427         1         0     19435         1         0     19444         1         0
     19447         1         0     19450         1         0     19453         1         0
     19456         1         0     19459         1         0     19462         1         0
     19464         1         0     19467         1         0     19469         1         0
     19472         1         0     19475         1         0     19478         1         0
     19481         1         0     19484         1         0     19488         1         0
     19491         1         0     19494         1         0     19497         1         0
     19500         1         0     19503         1         0     19506         1         0
     19509         1         0     19512         1         0     19515         1         0
     19518         1         0     19521         1         0     19524         1         0
     19527         1         0     19531         2         0     19538         2         0
     19549         1         0     19557         1         0     19566         1         0
     19569         1         0     19572         1         0     19575         1         0
     19578         1         0     19581         1         0     19584         1         0
     19586         1         0     19589         1         0     19591         1         0
     19594         1         0     19597         1         0     19600         1         0
     19603         1         0     19606         1         0     19610         1         0
     19613         1         0     19616         1         0     19619         1         0
     19622         1         0     19625         1         0     19628         1         0
     19631         1         0     19634         1         0     19637         1         0
     19640         1         0     19643         1         0     19646         1         0
     19649         1         0     19653         1         0     19658         1         0
     19662         2         0     19673         1         0     19681         1         0
     19690         1         0     19693         1         0     19696         1         0
     19699         1         0     19702         1         0     19705         1         0
     19708         1         0     19710         1         0     19713         1         0
     19715         1         0     19718         1         0     19721         1         0
     19724         1         0     19727         1         0     19730         1         0
     19734         1         0     19737         1         0     19740         1         0
     19743         1         0     19746         1         0     19749         1         0
     19752         1         0     19755         1         0     19758         1         0
     19761         1         0     19764         1         0     19767         1         0
     19770         1         0     19773         1         0     19777         2         0
     19784         2         0     19795         1         0     19803         1         0
     19812         1         0     19815         1         0     19818         1         0
     19821         1         0     19824         1         0     19827         1         0
     19830         1         0     19832         1         0     19834         1         0
     19837         1         0     19840         1         0     19843         1         0
     19846         1         0     19849         1         0     19853         1         0
     19856         1         0     19859         1         0     19862         1         0
     19865         1         0     19868         1         0     19871         1         0
     19873         1         0     19875         1         0     19878         1         0
     19881         1         0     19884         1         0     19887         1         0
     19890         1         0     19893         1         0     19896         1         0
     19900         2         0     19907         2         0     19918         1         0
     19926         1         0     19935         1         0     19938         1         0
     19941         1         0     19944         1         0     19947         1         0
     19950         1         0     19953         1         0     19955         1         0
     19958         1         0     19960         1         0     19963         1         0
     19966         1         0     19969         1         0     19972         1         0
     19975         1         0     19979         1         0     19982         1         0
     19985         1         0     19988         1         0     19991         1         0
     19994         1         0     19997         1         0     20000         1         0
     20003         1         0     20006         1         0     20009         1         0
     20012         1         0     20015         1         0     20018         1         0
     20022         2         0     20029         2         0     20040         1         0
     20048         1         0     20057         1         0     20060         1         0
     20063         1         0     20066         1         0     20069         1         0
     20072         1         0     20075         1         0     20077         1         0
     20080         1         0     20082         1         0     20085         1         0
     20088         1         0     20091         1         0     20094         1         0
     20097         1         0     20101         1         0     20104         1         0
     20107         1         0     20110         1         0     20113         1         0
     20116         1         0     20119         1         0     20122         1         0
     20125         1         0     20128         1         0     20131         1         0
     20134         1         0     20137         1         0     20141         1         0
     20146         1         0     20150         2         0     20161         1         0
     20169         1         0     20178         1         0     20181         1         0
     20184         1         0     20187         1         0     20190         1         0
     20193         1         0     20196         1         0     20198         1         0
     20200         1         0     20203         1         0     20206         1         0
     20209         1         0     20212         1         0     20215         1         0
     20219         1         0     20222         1         0     20225         1         0
     20228         1         0     20231         1         0     20234         1         0
     20237         1         0     20240         1         0     20243         1         0
     20246         1         0     20249         1         0     20252         1         0
     20255         1         0     20258         1         0     20262         1         0
     20267         1         0     20271         2         0     20282         1         0
     20290         1         0     20299         1         0     20302         1         0
     20305         1         0     20308         1         0     20311         1         0
     20314         1         0     20317         1         0     20319         1         0
     20322         1         0     20324         1         0     20327         1         0
     20330         1         0     20333         1         0     20336         1         0
     20339         1         0     20343         1         0     20346         1         0
     20349         1         0     20352         1         0     20355         1         0
     20358         1         0     20361         1         0     20364         1         0
     20367         1         0     20370         1         0     20373         1         0
     20376         1         0     20379         1         0     20382         1         0
     20386         2         0     20393         2         0     20404         1         0
     20412         1         0     20421         1         0     20424         1         0
     20427         1         0     20430         1         0     20433         1         0
     20436         1         0     20439         1         0     20441         1         0
     20443         1         0     20446         1         0     20449         1         0
     20452         1         0     20455         1         0     20458         1         0
     20462         1         0     20465         1         0     20468         1         0
     20471         1         0     20474         1         0     20477         1         0
     20480         1         0     20482         1         0     20484         1         0
     20487         1         0     20490         1         0     20493         1         0
     20496         1         0     20499         1         0     20502         1         0
     20505         1         0     20509         2         0     20516         2         0
     20527         1         0     20535         1         0     20544         1         0
     20547         1         0     20550         1         0     20553         1         0
     20556         1         0     20559         1         0     20562         1         0
     20564         1         0     20567         1         0     20569         1         0
     20572         1         0     20575         1         0     20578         1         0
     20581         1         0     20584         1         0     20588         1         0
     20591         1         0     20594         1         0     20597         1         0
     20600         1         0     20603         1         0     20606         1         0
     20609         1         0     20612         1         0     20615         1         0
     20618         1         0     20621         1         0     20624         1         0
     20627         1         0     20631         2         0     20638         2         0
     20649         1         0     20657         1         0     20666         1         0
     20669         1         0     20672         1         0     20675         1         0
     20678         1         0     20681         1         0     20684         1         0
     20686         1         0     20689         1         0     20691         1         0
     20694         1         0     20697         1         0     20700         1         0
     20703         1         0     20706         1         0     20710         1         0
     20713         1         0     20716         1         0     20719         1         0
     20722         1         0     20725         1         0     20728         1         0
     20731         1         0     20734         1         0     20737         1         0
     20740         1         0     20743         1         0     20746         1         0
     20749         1         0     20753         2         0     20760         2         0
     20771         1         0     20779         1         0     20788         1         0
     20791         1         0     20794         1         0     20797         1         0
     20800         1         0     20803         1         0     20806         1         0
     20808         1         0     20811         1         0     20813         1         0
     20816         1         0     20819         1         0     20822         1         0
     20825         1         0     20828         1         0     20832         1         0
     20835         1         0     20838         1         0     20841         1         0
     20844         1         0     20847         1         0     20850         1         0
     20853         1         0     20856         1         0     20859         1         0
     20862         1         0     20865         1         0     20868         1         0
     20871         1         0     20875         2         0     20882         2         0
     20893         1         0     20901         1         0     20910         1         0
     20913         1         0     20916         1         0     20919         1         0
     20922         1         0     20925         1         0     20928         1         0
     20930         1         0     20932         1         0     20935         1         0
     20938         1         0     20941         1         0     20944         1         0
     20947         1         0     20950         1         0     20953         1         0
     20957         1         0     20960         1         0     20963         1         0
     20966         1         0     20969         1         0     20972         1         0
     20975         1         0     20978         1         0     20981         1         0
     20984         1         0     20987         1         0     20990         1         0
     20993         1         0     20996         1         0     21000         2         0
     21007         2         0     21018         1         0     21026         1         0
     21035         1         0     21038         1         0     21041         1         0
     21044         1         0     21047         1         0     21050         1         0
     21053         1         0     21055         1         0     21057         1         0
     21060         1         0     21063         1         0     21066         1         0
     21069         1         0     21072         1         0     21075         1         0
     21078         1         0     21082         1         0     21085         1         0
     21088         1         0     21091         1         0     21094         1         0
     21097         1         0     21100         1         0     21103         1         0
     21106         1         0     21109         1         0     21112         1         0
     21115         1         0     21118         1         0     21121         1         0
     21125         1         0     21130         1         0     21134         2         0
     21145         1         0     21153         1         0     21162         1         0
     21165         1         0     21168         1         0     21171         1         0
     21174         1         0     21177         1         0     21180         1         0
     21182         1         0     21184         1         0     21187         1         0
     21190         1         0     21193         1         0     21196         1         0
     21199         1         0     21203         1         0     21206         1         0
     21209         1         0     21212         1         0     21215         1         0
     21218         1         0     21221         1         0     21224         1         0
     21227         1         0     21230         1         0     21233         1         0
     21236         1         0     21239         1         0     21242         1         0
     21246         2         0     21253         2         0     21264         1         0
     21272         1         0     21281         1         0     21284         1         0
     21287         1         0     21290         1         0     21293         1         0
     21296         1         0     21299         1         0     21301         1         0
     21304         1         0     21306         1         0     21309         1         0
     21312         1         0     21315         1         0     21318         1         0
     21321         1         0     21325         1         0     21328         1         0
     21331         1         0     21334         1         0     21337         1         0
     21340         1         0     21343         1         0     21346         1         0
     21349         1         0     21352         1         0     21355         1         0
     21358         1         0     21361         1         0     21364         1         0
     21368         2         0     21375         2         0     21386         1         0
     21394         1         0     21403         1         0     21406         1         0
     21409         1         0     21412         1         0     21415         1         0
     21418         1         0     21421         1         0     21423         1         0
     21426         1         0     21428         1         0     21431         1         0
     21434         1         0     21437         1         0     21440         1         0
     21443         1         0     21447         1         0     21450         1         0
     21453         1         0     21456         1         0     21459         1         0
     21462         1         0     21465         1         0     21468         1         0
     21471         1         0     21474         1         0     21477         1         0
     21480         1         0     21483         1         0     21486         1         0
     21490         2         0     21497         2         0     21508         1         0
     21516         1         0     21525         1         0     21528         1         0
     21531         1         0     21534         1         0     21537         1         0
     21540         1         0     21543         1         0     21545         1         0
     21547         1         0     21550         1         0     21553         1         0
     21556         1         0     21559         1         0     21562         1         0
     21565         1         0     21568         1         0     21572         1         0
     21575         1         0     21578         1         0     21581         1         0
     21584         1         0     21587         1         0     21590         1         0
     21593         1         0     21596         1         0     21599         1         0
     21602         1         0     21605         1         0     21608         1         0
     21611         1         0     21615         2         0     21622         2         0
     21633         1         0     21641         1         0     21650         1         0
     21653         1         0     21656         1         0     21659         1         0
     21662         1         0     21665         1         0     21668         1         0
     21670         1         0     21672         1         0     21675         1         0
     21678         1         0     21681         1         0     21684         1         0
     21687         1         0     21690         1         0     21693         1         0
     21697         1         0     21700         1         0     21703         1         0
     21706         1         0     21709         1         0     21712         1         0
     21715         1         0     21718         1         0     21721         1         0
     21724         1         0     21727         1         0     21730         1         0
     21733         1         0     21736         1         0     21740         2         0
     21747         2         0     21758         1         0     21766         1         0
     21775         1         0     21778         1         0     21781         1         0
     21784         1         0     21787         1         0     21790         1         0
     21793         1         0     21795         1         0     21798         1         0
     21800         1         0     21803         1         0     21806         1         0
     21809         1         0     21812         1         0     21815         1         0
     21819         1         0     21822         1         0     21825         1         0
     21828         1         0     21831         1         0     21834         1         0
     21837         1         0     21840         1         0     21843         1         0
     21846         1         0     21849         1         0     21852         1         0
     21855         1         0     21858         1         0     21862         2         0
     21869         2         0     21880         1         0     21888         1         0
     21897         1         0     21900         1         0     21903         1         0
     21906         1         0     21909         1         0     21912         1         0
     21915         1         0     21917         1         0     21919         1         0
     21922         1         0     21925         1         0     21928         1         0
     21931         1         0     21934         1         0     21938         1         0
     21941         1         0     21944         1         0     21947         1         0
     21950         1         0     21953         1         0     21956         1         0
     21958         1         0     21960         1         0     21963         1         0
     21966         1         0     21969         1         0     21972         1         0
     21975         1         0     21978         1         0     21981         1         0
     21985         1         0     21990         1         0     21994         2         0
     22005         1         0     22013         1         0     22022         1         0
     22025         1         0     22028         1         0     22031         1         0
     22034         1         0     22037         1         0     22040         1         0
     22042         1         0     22045         1         0     22047         1         0
     22050         1         0     22053         1         0     22056         1         0
     22059         1         0     22062         1         0     22066         1         0
     22069         1         0     22072         1         0     22075         1         0
     22078         1         0     22081         1         0     22084         1         0
     22087         1         0     22090         1         0     22093         1         0
     22096         1         0     22099         1         0     22102         1         0
     22105         1         0     22109         2         0     22116         2         0
     22127         1         0     22135         1         0     22144         1         0
     22147         1         0     22150         1         0     22153         1         0
     22156         1         0     22159         1         0     22162         1         0
     22164         1         0     22167         1         0     22169         1         0
     22172         1         0     22175         1         0     22178         1         0
     22181         1         0     22184         1         0     22188         1         0
     22191         1         0     22194         1         0     22197         1         0
     22200         1         0     22203         1         0     22206         1         0
     22209         1         0     22212         1         0     22215         1         0
     22218         1         0     22221         1         0     22224         1         0
     22227         1         0     22231         2         0     22238         2         0
     22249         1         0     22257         1         0     22266         1         0
     22269         1         0     22272         1         0     22275         1         0
     22278         1         0     22281         1         0     22284         1         0
     22286         1         0     22289         1         0     22291         1         0
     22294         1         0     22297         1         0     22300         1         0
     22303         1         0     22306         1         0     22310         1         0
     22313         1         0     22316         1         0     22319         1         0
     22322         1         0     22325         1         0     22328         1         0
     22331         1         0     22334         1         0     22337         1         0
     22340         1         0     22343         1         0     22346         1         0
     22349         1         0     22353         1         0     22358         1         0
     22362         2         0     22373         1         0     22381         1         0
     22390         1         0     22393         1         0     22396         1         0
     22399         1         0     22402         1         0     22405         1         0
     22408         1         0     22410         1         0     22412         1         0
     22415         1         0     22418         1         0     22421         1         0
     22424         1         0     22427         1         0     22431         1         0
     22434         1         0     22437         1         0     22440         1         0
     22443         1         0     22446         1         0     22449         1         0
     22452         1         0     22455         1         0     22458         1         0
     22461         1         0     22464         1         0     22467         1         0
     22470         1         0     22474         2         0     22481         2         0
     22492         1         0     22500         1         0     22509         1         0
     22512         1         0     22515         1         0     22518         1         0
     22521         1         0     22524         1         0     22527         1         0
     22529         1         0     22531         1         0     22534         1         0
     22537         1         0     22540         1         0     22543         1         0
     22546         1         0     22550         1         0     22553         1         0
     22556         1         0     22559         1         0     22562         1         0
     22565         1         0     22568         1         0     22570         1         0
     22572         1         0     22575         1         0     22578         1         0
     22581         1         0     22584         1         0     22587         1         0
     22590         1         0     22593         1         0     22597         2         0
     22604         2         0     22615         1         0     22623         1         0
     22632         1         0     22635         1         0     22638         1         0
     22641         1         0     22644         1         0     22647         1         0
     22650         1         0     22652         1         0     22655         1         0
     22657         1         0     22660         1         0     22663         1         0
     22666         1         0     22669         1         0     22672         1         0
     22676         1         0     22679         1         0     22682         1         0
     22685         1         0     22688         1         0     22691         1         0
     22694         1         0     22697         1         0     22700         1         0
     22703         1         0     22706         1         0     22709         1         0
     22712         1         0     22715         1         0     22719         2         0
     22726         2         0     22737         1         0     22745         1         0
     22754         1         0     22757         1         0     22760         1         0
     22763         1         0     22766         1         0     22769         1         0
     22772         1         0     22774         1         0     22777         1         0
     22779         1         0     22782         1         0     22785         1         0
     22788         1         0     22791         1         0     22794         1         0
     22798         1         0     22801         1         0     22804         1         0
     22807         1         0     22810         1         0     22813         1         0
     22816         1         0     22819         1         0     22822         1         0
     22825         1         0     22828         1         0     22831         1         0
     22834         1         0     22838         1         0     22843         1         0
     22847         2         0     22858         1         0     22866         1         0
     22875         1         0     22878         1         0     22881         1         0
     22884         1         0     22887         1         0     22890         1         0
     22893         1         0     22895         1         0     22898         1         0
     22900         1         0     22903         1         0     22906         1         0
     22909         1         0     22912         1         0     22915         1         0
     22919         1         0     22922         1         0     22925         1         0
     22928         1         0     22931         1         0     22934         1         0
     22937         1         0     22940         1         0     22943         1         0
     22946         1         0     22949         1         0     22952         1         0
     22955         1         0     22958         1         0     22962         2         0
     22969         2         0     22980         1         0     22988         1         0
     22997         1         0     23000         1         0     23003         1         0
     23006         1         0     23009         1         0     23012         1         0
     23015         1         0     23017         1         0     23020         1         0
     23022         1         0     23025         1         0     23028         1         0
     23031         1         0     23034         1         0     23037         1         0
     23041         1         0     23044         1         0     23047         1         0
     23050         1         0     23053         1         0     23056         1         0
     23059         1         0     23062         1         0     23065         1         0
     23068         1         0     23071         1         0     23074         1         0
     23077         1         0     23080         1         0     23084         2         0
     23091         2         0     23102         1         0     23110         1         0
     23119         1         0     23122         1         0     23125         1         0
     23128         1         0     23131         1         0     23134         1         0
     23137         1         0     23139         1         0     23141         1         0
     23144         1         0     23147         1         0     23150         1         0
     23153         1         0     23156         1         0     23159         1         0
     23162         1         0     23166         1         0     23169         1         0
     23172         1         0     23175         1         0     23178         1         0
     23181         1         0     23184         1         0     23187         1         0
     23190         1         0     23193         1         0     23196         1         0
     23199         1         0     23202         1         0     23205         1         0
     23209         2         0     23216         2         0     23227         1         0
     23235         1         0     23244         1         0     23247         1         0
     23250         1         0     23253         1         0     23256         1         0
     23259         1         0     23262         1         0     23264         1         0
     23267         1         0     23269         1         0     23272         1         0
     23275         1         0     23278         1         0     23281         1         0
     23284         1         0     23288         1         0     23291         1         0
     23294         1         0     23297         1         0     23300         1         0
     23303         1         0     23306         1         0     23309         1         0
     23312         1         0     23315         1         0     23318         1         0
     23321         1         0     23324         1         0     23327         1         0
     23331         2         0     23338         2         0     23349         1         0
     23357         1         0     23366         1         0     23369         1         0
     23372         1         0     23375         1         0     23378         1         0
     23381         1         0     23384         1         0     23386         1         0
     23389         1         0     23391         1         0     23394         1         0
     23397         1         0     23400         1         0     23403         1         0
     23406         1         0     23410         1         0     23413         1         0
     23416         1         0     23419         1         0     23422         1         0
     23425         1         0     23428         1         0     23431         1         0
     23434         1         0     23437         1         0     23440         1         0
     23443         1         0     23446         1         0     23449         1         0
     23453         2         0     23460         2         0     23471         1         0
     23479         1         0     23488         1         0     23491         1         0
     23494         1         0     23497         1         0     23500         1         0
     23503         1         0     23506         1         0     23508         1         0
     23511         1         0     23513         1         0     23516         1         0
     23519         1         0     23522         1         0     23525         1         0
     23528         1         0     23532         1         0     23535         1         0
     23538         1         0     23541         1         0     23544         1         0
     23547         1         0     23550         1         0     23553         1         0
     23556         1         0     23559         1         0     23562         1         0
     23565         1         0     23568         1         0     23571         1         0
     23575         2         0     23582         2         0     23593         1         0
     23601         1         0     23610         1         0     23613         1         0
     23616         1         0     23619         1         0     23622         1         0
     23625         1         0     23628         1         0     23630         1         0
     23632         1         0     23635         1         0     23638         1         0
     23641         1         0     23644         1         0     23647         1         0
     23650         1         0     23653         1         0     23657         1         0
     23660         1         0     23663         1         0     23666         1         0
     23669         1         0     23672         1         0     23675         1         0
     23678         1         0     23681         1         0     23684         1         0
     23687         1         0     23690         1         0     23693         1         0
     23696         1         0     23700         1         0     23705         1         0
     23709         2         0     23720         1         0     23728         1         0
     23737         1         0     23740         1         0     23743         1         0
     23746         1         0     23749         1         0     23752         1         0
     23755         1         0     23757         1         0     23759         1         0
     23762         1         0     23765         1         0     23768         1         0
     23771         1         0     23774         1         0     23778         1         0
     23781         1         0     23784         1         0     23787         1         0
     23790         1         0     23793         1         0     23796         1         0
     23799         1         0     23802         1         0     23805         1         0
     23808         1         0     23811         1         0     23814         1         0
     23817         1         0     23821         2         0     23828         2         0
     23839         1         0     23847         1         0     23856         1         0
     23859         1         0     23862         1         0     23865         1         0
     23868         1         0     23871         1         0     23874         1         0
     23876         1         0     23879         1         0     23881         1         0
     23884         1         0     23887         1         0     23890         1         0
     23893         1         0     23896         1         0     23900         1         0
     23903         1         0     23906         1         0     23909         1         0
     23912         1         0     23915         1         0     23918         1         0
     23921         1         0     23924         1         0     23927         1         0
     23930         1         0     23933         1         0     23936         1         0
     23940         2         0     23947         2         0     23958         1         0
     23966         1         0     23975         1         0     23978         1         0
     23981         1         0     23984         1         0     23987         1         0
     23990         1         0     23993         1         0     23995         1         0
     23998         1         0     24000         1         0     24003         1         0
     24006         1         0     24009         1         0     24012         1         0
     24015         1         0     24019         1         0     24022         1         0
     24025         1         0     24028         1         0     24031         1         0
     24034         1         0     24037         1         0     24040         1         0
     24043         1         0     24046         1         0     24049         1         0
     24052         1         0     24055         1         0     24058         1         0
     24062         2         0     24069         2         0     24080         1         0
     24088         1         0     24097         1         0     24100         1         0
     24103         1         0     24106         1         0     24109         1         0
     24112         1         0     24115         1         0     24117         1         0
     24119         1         0     24122         1         0     24125         1         0
     24128         1         0     24131         1         0     24134         1         0
     24137         1         0     24140         1         0     24144         1         0
     24147         1         0     24150         1         0     24153         1         0
     24156         1         0     24159         1         0     24162         1         0
     24165         1         0     24168         1         0     24171         1         0
     24174         1         0     24177         1         0     24180         1         0
     24183         1         0     24187         2         0     24198         1         0
     24202         2         0     24213         1         0     24221         1         0
     24230         1         0     24238         1         0     24247         1         0
     24250         1         0     24253         1         0     24256         1         0
     24259         1         0     24262         1         0     24265         1         0
     24268         1         0     24271         1         0     24273         1         0
     24275         1         0     24278         1         0     24281         1         0
     24284         1         0     24287         1         0     24290         1         0
     24294         1         0     24297         1         0     24300         1         0
     24303         1         0     24306         1         0     24309         1         0
     24312         1         0     24315         1         0     24318         1         0
     24321         1         0     24324         1         0     24327         1         0
     24330         1         0     24333         1         0     24337         1         0
     24340         1         0     24343         1         0     24346         1         0
     24349         1         0     24352         1         0     24355         1         0
     24358         1         0     24361         1         0     24363         1         0
     24365         1         0     24368         1         0     24371         1         0
     24374         1         0     24377         1         0     24380         1         0
     24384         1         0     24387         1         0     24390         1         0
     24393         1         0     24396         1         0     24399         1         0
     24402         1         0     24405         1         0     24408         1         0
     24411         1         0     24414         1         0     24417         1         0
     24420         1         0     24423         1         0     24427         1         0
     24432         1         0     24436         2         0     24447         1         0
     24455         1         0     24464         1         0     24467         1         0
     24470         1         0     24473         1         0     24476         1         0
     24479         1         0     24482         1         0     24484         1         0
     24487         1         0     24489         1         0     24492         1         0
     24495         1         0     24498         1         0     24501         1         0
     24504         1         0     24508         1         0     24511         1         0
     24514         1         0     24517         1         0     24520         1         0
     24523         1         0     24526         1         0     24529         1         0
     24532         1         0     24535         1         0     24538         1         0
     24541         1         0     24544         1         0     24547         1         0
     24551         2         0     24558         2         0     24569         1         0
     24577         1         0     24586         1         0     24589         1         0
     24592         1         0     24595         1         0     24598         1         0
     24601         1         0     24604         1         0     24606         1         0
     24609         1         0     24611         1         0     24614         1         0
     24617         1         0     24620         1         0     24623         1         0
     24626         1         0     24630         1         0     24633         1         0
     24636         1         0     24639         1         0     24642         1         0
     24645         1         0     24648         1         0     24651         1         0
     24654         1         0     24657         1         0     24660         1         0
     24663         1         0     24666         1         0     24669         1         0
     24673         2         0     24680         2         0     24691         1         0
     24699         1         0     24708         1         0     24711         1         0
     24714         1         0     24717         1         0     24720         1         0
     24723         1         0     24726         1         0     24728         1         0
     24731         1         0     24733         1         0     24736         1         0
     24739         1         0     24742         1         0     24745         1         0
     24748         1         0     24752         1         0     24755         1         0
     24758         1         0     24761         1         0     24764         1         0
     24767         1         0     24770         1         0     24773         1         0
     24776         1         0     24779         1         0     24782         1         0
     24785         1         0     24788         1         0     24791         1         0
     24795         1         0     24800         1         0     24804         2         0
     24815         1         0     24823         1         0     24832         1         0
     24835         1         0     24838         1         0     24841         1         0
     24844         1         0     24847         1         0     24850         1         0
     24852         1         0     24854         1         0     24857         1         0
     24860         1         0     24863         1         0     24866         1         0
     24869         1         0     24873         1         0     24876         1         0
     24879         1         0     24882         1         0     24885         1         0
     24888         1         0     24891         1         0     24894         1         0
     24897         1         0     24900         1         0     24903         1         0
     24906         1         0     24909         1         0     24912         1         0

         4 !MOLNT
         4         4         4         4         4         4         4         4
         4         4         4         4         4         4         4         4
         4         4         4         4         4         4         4         4
         4         4         4         4         4         4         4         4
         4         4         4         4         4         4         4         4
         4         4         4         4         4         4         4         4
         4         4         4         4         4         4         4         4
         4         4         4         4         4         4         4         4
         4         4         4         4         4         4         4         4
         4         4         4         4         4         4         4         4
         4         4         4         4         4         4         4         4
         4         4         4         4         4         4         4         4
         4         4         4         4         4         4         4         4
         4         4         4         4         4         4         4         4
         4         4         4         4         4         4         4         4
         4         4         4         4         4         4         4         4
         4         4         4         4         4         4         4         4
         4         4         4         4         4         4         4         4
         4         4         4         4         4         4         4         4
         4         4         4         4         4         4         4         4
         4         4         4         4         4         4         4         4
         4         4         4         4         4         4         4         4
         4         4         4         4         4         4         4         4
         4         4         4         4         4         4         4         4
         4         4         4         4         4         4         4         4
         3         3         3         3         3         3         3         3
         3         3         3         3         3         3         3         3
         3         3         3         3         3         3         3         3
         3         3         3         3         3         3         3         3
         3         3         3         3         3         3         3         3
         3         3         3         3         3         3         3         3
         3         3         3         3         3         3         3         3
         3         3         3         3         3         3         3         3
         3         3         3         3         3         3         3         3
         3         3         3         3         3         3         3         3
         3         3         3         3         3         3         3         3
         3         3         3         3         3         3         3         3
         3         3         3         3         3         3         3         3
         3         3         3         3         3         3         3         3
         3         3         3         3         3         3         3         3
         3         3         3         3         3         3         3         3
         3         3         3         3         3         3         3         3
         3         3         3         3         3         3         3         3
         3         3         3         3         3         3         3         3
         3         3         3         3         3         3         3         3
         3         3         3         3         3         3         3         3
         3         3         3         3         3         3         3         3
         3         3         3         3         3         3         3         3
         3         3         3         3         3         3         3         3
         3         3         3         3         3         3         3         3
         3         3         3         3         3         3         3         3
         3         3         3         3         3         3         3         3
         3         3         3         3         3         3         3         3
         3         3         3         3         3         3         3         3
         3         3         3         3         3         3         3         3
         3         3         3         3         3         3         3         3
         3         3         3         3         3         3         3         3
         3         3         3         3         3         3         3         3
         3         3         3         3         3         3         3         3
         3         3         3         3         3         3         3         3
         3         3         3         3         3         3         3         3
         3         3         3         3         3         3         3         3
         3         3         3         3         3         3         3         3
         3         3         3         3         3         3         3         3
         3         3         3         3         3         3         3         3
         3         3         3         3         3         3         3         3
         3         3         3         3         3         3         3         3
         3         3         3         3         3         3         3         3
         3         3         3         3         3         3         3         3
         3         3         3         3         3         3         3         3
         3         3         3         3         3         3         3         3
         3         3         3         3         3         3         3         3
         3         3         3         3         3         3         3         3
         3         3         3         3         3         3         3         3
         3         3         3         3         3         3         3         3
         3         3         3         3         3         3         3         3
         3         3         3         3         3         3         3         3
         3         3         3         3         3         3         3         3
         3         3         3         3         3         3         3         3
         3         3         3         3         3         3         3         3
         3         3         3         3         3         3         3         3
         3         3         3         3         3         3         3         3
         3         3         3         3         3         3         3         3
         3         3         3         3         3         3         3         3
         3         3         3         3         3         3         3         3
         3         3         3         3         3         3         3         3
         3         3         3         3         3         3         3         3
         3         3         3         3         3         3         3         3
         3         3         3         3         3         3         3         3
         3         3         3         3         3         3         3         3
         3         3         3         3         3         3         3         3
         3         3         3         3         3         3         3         3
         3         3         3         3         3         3         3         3
         3         3         3         3         3         3         3         3
         3         3         3         3         3         3         3         3
         3         3         3         3         3         3         3         3
         3         3         3         3         3         3         3         3
         3         3         3         3         3         3         3         3
         3         3         3         3         3         3         3         3
         3         3         3         3         3         3         3         3
         3         3         3         3         3         3         3         3
         3         3         3         3         3         3         3         3
         3         3         3         3         3         3         3         3
         3         3         3         3         3         3         3         3
         3         3         3         3         3         3         3         3
         3         3         3         3         3         3         3         3
         3         3         3         3         3         3         3         3
         3         3         3         3         3         3         3         3
         3         3         3         3         3         3         3         3
         3         3         3         3         3         3         3         3
         3         3         3         3         3         3         3         3
         3         3         3         3         3         3         3         3
         3         3         3         3         3         3         3         3
         3         3         3         3         3         3         3         3
         3         3         3         3         3         3         3         3
         3         3         3         3         3         3         3         3
         3         3         3         3         3         3         3         3
         3         3         3         3         3         3         3         3
         3         3         3         3         3         3         3         3
         3         3         3         3         3         3         3         3
         3         3         3         3         3         3         3         3
         3         3         3         3         3         3         3         3
         3         3         3         3         3         3         3         3
         3         3         3         3         3         3         3         3
         3         3         3         3         3         3         3         3
         3         3         3         3         3         3         3         3
         3         3         3         3         3         3         3         3
         3         3         3         3         3         3         3         3
         3         3         3         3         3         3         3         3
         3         3         3         3         3         3         3         3
         3         3         3         3         3         3         3         3
         3         3         3         3         3         3         3         3
         3         3         3         3         3         3         3         3
         3         3         3         3         3         3         3         3
         3         3         3         3         3         3         3         3
         3         3         3         3         3         3         3         3
         3         3         3         3         3         3         3         3
         3         3         3         3         3         3         3         3
         3         3         3         3         3         3         3         3
         3         3         3         3         3         3         3         3
         3         3         3         3         3         3         3         3
         3         3         3         3         3         3         3         3
         3         3         3         3         3         3         3         3
         3         3         3         3         3         3         3         3
         3         3         3         3         3         3         3         3
         3         3         3         3         3         3         3         3
         3         3         3         3         3         3         3         3
         3         3         3         3         3         3         3         3
         3         3         3         3         3         3         3         3
         3         3         3         3         3         3         3         3
         3         3         3         3         3         3         3         3
         3         3         3         3         3         3         3         3
         3         3         3         3         3         3         3         3
         3         3         3         3         3         3         3         3
         3         3         3         3         3         3         3         3
         3         3         3         3         3         3         3         3
         3         3         3         3         3         3         3         3
         3         3         3         3         3         3         3         3
         3         3         3         3         3         3         3         3
         3         3         3         3         3         3         3         3
         3         3         3         3         3         3         3         3
         3         3         3         3         3         3         3         3
         3         3         3         3         3         3         3         3
         3         3         3         3         3         3         3         3
         3         3         3         3         3         3         3         3
         3         3         3         3         3         3         3         3
         3         3         3         3         3         3         3         3
         3         3         3         3         3         3         3         3
         3         3         3         3         3         3         3         3
         3         3         3         3         3         3         3         3
         3         3         3         3         3         3         3         3
         3         3         3         3         3         3         3         3
         3         3         3         3         3         3         3         3
         3         3         3         3         3         3         3         3
         3         3         3         3         3         3         3         3
         3         3         3         3         3         3         3         3
         3         3         3         3         3         3         3         3
         3         3         3         3         3         3         3         3
         3         3         3         3         3         3         3         3
         3         3         3         3         3         3         3         3
         3         3         3         3         3         3         3         3
         3         3         3         3         3         3         3         3
         3         3         3         3         3         3         3         3
         3         3         3         3         3         3         3         3
         3         3         3         3         3         3         3         3
         3         3         3         3         3         3         3         3
         3         3         3         3         3         3         3         3
         3         3         3         3         3         3         3         3
         3         3         3         3         3         3         3         3
         3         3         3         3         3         3         3         3
         3         3         3         3         3         3         3         3
         3         3         3         3         3         3         3         3
         3         3         3         3         3         3         3         3
         3         3         3         3         3         3         3         3
         3         3         3         3         3         3         3         3
         3         3         3         3         3         3         3         3
         3         3         3         3         3         3         3         3
         3         3         3         3         3         3         3         3
         3         3         3         3         3         3         3         3
         3         3         3         3         3         3         3         3
         3         3         3         3         3         3         3         3
         3         3         3         3         3         3         3         3
         3         3         3         3         3         3         3         3
         3         3         3         3         3         3         3         3
         3         3         3         3         3         3         3         3
         3         3         3         3         3         3         3         3
         3         3         3         3         3         3         3         3
         3         3         3         3         3         3         3         3
         3         3         3         3         3         3         3         3
         3         3         3         3         3         3         3         3
         3         3         3         3         3         3         3         3
         3         3         3         3         3         3         3         3
         3         3         3         3         3         3         3         3
         3         3         3         3         3         3         3         3
         3         3         3         3         3         3         3         3
         3         3         3         3         3         3         3         3
         3         3         3         3         3         3         3         3
         3         3         3         3         3         3         3         3
         3         3         3         3         3         3         3         3
         3         3         3         3         3         3         3         3
         3         3         3         3         3         3         3         3
         3         3         3         3         3         3         3         3
         3         3         3         3         3         3         3         3
         3         3         3         3         3         3         3         3
         3         3         3         3         3         3         3         3
         3         3         3         3         3         3         3         3
         3         3         3         3         3         3         3         3
         3         3         3         3         3         3         3         3
         3         3         3         3         3         3         3         3
         3         3         3         3         3         3         3         3
         3         3         3         3         3         3         3         3
         3         3         3         3         3         3         3         3
         3         3         3         3         3         3         3         3
         3         3         3         3         3         3         3         3
         3         3         3         3         3         3         3         3
         3         3         3         3         3         3         3         3
         3         3         3         3         3         3         3         3
         3         3         3         3         3         3         3         3
         3         3         3         3         3         3         3         3
         3         3         3         3         3         3         3         3
         3         3         3         3         3         3         3         3
         3         3         3         3         3         3         3         3
         3         3         3         3         3         3         3         3
         3         3         3         3         3         3         3         3
         3         3         3         3         3         3         3         3
         3         3         3         3         3         3         3         3
         3         3         3         3         3         3         3         3
         3         3         3         3         3         3         3         3
         3         3         3         3         3         3         3         3
         3         3         3         3         3         3         3         3
         3         3         3         3         3         3         3         3
         3         3         3         3         3         3         3         3
         3         3         3         3         3         3         3         3
         3         3         3         3         3         3         3         3
         3         3         3         3         3         3         3         3
         3         3         3         3         3         3         3         3
         3         3         3         3         3         3         3         3
         3         3         3         3         3         3         3         3
         3         3         3         3         3         3         3         3
         3         3         3         3         3         3         3         3
         3         3         3         3         3         3         3         3
         3         3         3         3         3         3         3         3
         3         3         3         3         3         3         3         3
         3         3         3         3         3         3         3         3
         3         3         3         3         3         3         3         3
         3         3         3         3         3         3         3         3
         3         3         3         3         3         3         3         3
         3         3         3         3         3         3         3         3
         3         3         3         3         3         3         3         3
         3         3         3         3         3         3         3         3
         3         3         3         3         3         3         3         3
         3         3         3         3         3         3         3         3
         3         3         3         3         3         3         3         3
         3         3         3         3         3         3         3         3
         3         3         3         3         3         3         3         3
         3         3         3         3         3         3         3         3
         3         3         3         3         3         3         3         3
         3         3         3         3         3         3         3         3
         3         3         3         3         3         3         3         3
         3         3         3         3         3         3         3         3
         3         3         3         3         3         3         3         3
         3         3         3         3         3         3         3         3
         3         3         3         3         3         3         3         3
         3         3         3         3         3         3         3         3
         3         3         3         3         3         3         3         3
         3         3         3         3         3         3         3         3
         3         3         3         3         3         3         3         3
         3         3         3         3         3         3         3         3
         3         3         3         3         3         3         3         3
         3         3         3         3         3         3         3         3
         3         3         3         3         3         3         3         3
         3         3         3         3         3         3         3         3
         3         3         3         3         3         3         3         3
         3         3         3         3         3         3         3         3
         3         3         3         3         3         3         3         3
         3         3         3         3         3         3         3         3
         3         3         3         3         3         3         3         3
         3         3         3         3         3         3         3         3
         3         3         3         3         3         3         3         3
         3         3         3         3         3         3         3         3
         3         3         3         3         3         3         3         3
         3         3         3         3         3         3         3         3
         3         3         3         3         3         3         3         3
         3         3         3         3         3         3         3         3
         3         3         3         3         3         3         3         3
         3         3         3         3         3         3         3         3
         3         3         3         3         3         3         3         3
         3         3         3         3         3         3         3         3
         3         3         3         3         3         3         3         3
         3         3         3         3         3         3         3         3
         3         3         3         3         3         3         3         3
         3         3         3         3         3         3         3         3
         3         3         3         3         3         3         3         3
         3         3         3         3         3         3         3         3
         3         3         3         3         3         3         3         3
         3         3         3         3         3         3         3         3
         3         3         3         3         3         3         3         3
         3         3         3         3         3         3         3         3
         3         3         3         3         3         3         3         3
         3         3         3         3         3         3         3         3
         3         3         3         3         3         3         3         3
         3         3         3         3         3         3         3         3
         3         3         3         3         3         3         3         3
         3         3         3         3         3         3         3         3
         3         3         3         3         3         3         3         3
         3         3         3         3         3         3         3         3
         3         3         3         3         3         3         3         3
         3         3         3         3         3         3         3         3
         3         3         3         3         3         3         3         3
         3         3         3         3         3         3         3         3
         3         3         3         3         3         3         3         3
         3         3         3         3         3         3         3         3
         3         3         3         3         3         3         3         3
         3         3         3         3         3         3         3         3
         3         3         3         3         3         3         3         3
         3         3         3         3         3         3         3         3
         3         3         3         3         3         3         3         3
         3         3         3         3         3         3         3         3
         3         3         3         3         3         3         3         3
         3         3         3         3         3         3         3         3
         3         3         3         3         3         3         3         3
         3         3         3         3         3         3         3         3
         3         3         3         3         3         3         3         3
         3         3         3         3         3         3         3         3
         3         3         3         3         3         3         3         3
         3         3         3         3         3         3         3         3
         3         3         3         3         3         3         3         3
         3         3         3         3         3         3         3         3
         3         3         3         3         3         3         3         3
         3         3         3         3         3         3         3         3
         3         3         3         3         3         3         3         3
         3         3         3         3         3         3         3         3
         3         3         3         3         3         3         3         3
         3         3         3         3         3         3         3         3
         3         3         3         3         3         3         3         3
         3         3         3         3         3         3         3         3
         3         3         3         3         3         3         3         3
         3         3         3         3         3         3         3         3
         3         3         3         3         3         3         3         3
         3         3         3         3         3         3         3         3
         3         3         3         3         3         3         3         3
         3         3         3         3         3         3         3         3
         3         3         3         3         3         3         3         3
         3         3         3         3         3         3         3         3
         3         3         3         3         3         3         3         3
         3         3         3         3         3         3         3         3
         3         3         3         3         3         3         3         3
         3         3         3         3         3         3         3         3
         3         3         3         3         3         3         3         3
         3         3         3         3         3         3         3         3
         3         3         3         3         3         3         3         3
         3         3         3         3         3         3         3         3
         3         3         3         3         3         3         3         3
         3         3         3         3         3         3         3         3
         3         3         3         3         3         3         3         3
         3         3         3         3         3         3         3         3
         3         3         3         3         3         3         3         3
         3         3         3         3         3         3         3         3
         3         3         3         3         3         3         3         3
         3         3         3         3         3         3         3         3
         3         3         3         3         3         3         3         3
         3         3         3         3         3         3         3         3
         3         3         3         3         3         3         3         3
         3         3         3         3         3         3         3         3
         3         3         3         3         3         3         3         3
         3         3         3         3         3         3         3         3
         3         3         3         3         3         3         3         3
         3         3         3         3         3         3         3         3
         3         3         3         3         3         3         3         3
         3         3         3         3         3         3         3         3
         3         3         3         3         3         3         3         3
         3         3         3         3         3         3         3         3
         3         3         3         3         3         3         3         3
         3         3         3         3         3         3         3         3
         3         3         3         3         3         3         3         3
         3         3         3         3         3         3         3         3
         3         3         3         3         3         3         3         3
         3         3         3         3         3         3         3         3
         3         3         3         3         3         3         3         3
         3         3         3         3         3         3         3         3
         3         3         3         3         3         3         3         3
         3         3         3         3         3         3         3         3
         3         3         3         3         3         3         3         3
         3         3         3         3         3         3         3         3
         3         3         3         3         3         3         3         3
         3         3         3         3         3         3         3         3
         3         3         3         3         3         3         3         3
         3         3         3         3         3         3         3         3
         3         3         3         3         3         3         3         3
         3         3         3         3         3         3         3         3
         3         3         3         3         3         3         3         3
         3         3         3         3         3         3         3         3
         3         3         3         3         3         3         3         3
         3         3         3         3         3         3         3         3
         3         3         3         3         3         3         3         3
         3         3         3         3         3         3         3         3
         3         3         3         3         3         3         3         3
         3         3         3         3         3         3         3         3
         3         3         3         3         3         3         3         3
         3         3         3         3         3         3         3         3
         3         3         3         3         3         3         3         3
         3         3         3         3         3         3         3         3
         3         3         3         3         3         3         3         3
         3         3         3         3         3         3         3         3
         3         3         3         3         3         3         3         3
         3         3         3         3         3         3         3         3
         3         3         3         3         3         3         3         3
         3         3         3         3         3         3         3         3
         3         3         3         3         3         3         3         3
         3         3         3         3         3         3         3         3
         3         3         3         3         3         3         3         3
         3         3         3         3         3         3         3         3
         3         3         3         3         3         3         3         3
         3         3         3         3         3         3         3         3
         3         3         3         3         3         3         3         3
         3         3         3         3         3         3         3         3
         3         3         3         3         3         3         3         3
         3         3         3         3         3         3         3         3
         3         3         3         3         3         3         3         3
         3         3         3         3         3         3         3         3
         3         3         3         3         3         3         3         3
         3         3         3         3         3         3         3         3
         3         3         3         3         3         3         3         3
         3         3         3         3         3         3         3         3
         3         3         3         3         3         3         3         3
         3         3         3         3         3         3         3         3
         3         3         3         3         3         3         3         3
         3         3         3         3         3         3         3         3
         3         3         3         3         3         3         3         3
         3         3         3         3         3         3         3         3
         3         3         3         3         3         3         3         3
         3         3         3         3         3         3         3         3
         3         3         3         3         3         3         3         3
         3         3         3         3         3         3         3         3
         3         3         3         3         3         3         3         3
         3         3         3         3         3         3         3         3
         3         3         3         3         3         3         3         3
         3         3         3         3         3         3         3         3
         3         3         3         3         3         3         3         3
         3         3         3         3         3         3         3         3
         3         3         3         3         3         3         3         3
         3         3         3         3         3         3         3         3
         3         3         3         3         3         3         3         3
         3         3         3         3         3         3         3         3
         3         3         3         3         3         3         3         3
         3         3         3         3         3         3         3         3
         3         3         3         3         3         3         3         3
         3         3         3         3         3         3         3         3
         3         3         3         3         3         3         3         3
         3         3         3         3         3         3         3         3
         3         3         3         3         3         3         3         3
         3         3         3         3         3         3         3         3
         3         3         3         3         3         3         3         3
         3         3         3         3         3         3         3         3
         3         3         3         3         3         3         3         3
         3         3         3         3         3         3         3         3
         3         3         3         3         3         3         3         3
         3         3         3         3         3         3         3         3
         3         3         3         3         3         3         3         3
         3         3         3         3         3         3         3         3
         3         3         3         3         3         3         3         3
         3         3         3         3         3         3         3         3
         3         3         3         3         3         3         3         3
         3         3         3         3         3         3         3         3
         3         3         3         3         3         3         3         3
         3         3         3         3         3         3         3         3
         3         3         3         3         3         3         3         3
         3         3         3         3         3         3         3         3
         3         3         3         3         3         3         3         3
         3         3         3         3         3         3         3         3
         3         3         3         3         3         3         3         3
         3         3         3         3         3         3         3         3
         3         3         3         3         3         3         3         3
         3         3         3         3         3         3         3         3
         3         3         3         3         3         3         3         3
         3         3         3         3         3         3         3         3
         3         3         3         3         3         3         3         3
         3         3         3         3         3         3         3         3
         3         3         3         3         3         3         3         3
         3         3         3         3         3         3         3         3
         3         3         3         3         3         3         3         3
         3         3         3         3         3         3         3         3
         3         3         3         3         3         3         3         3
         3         3         3         3         3         3         3         3
         3         3         3         3         3         3         3         3
         3         3         3         3         3         3         3         3
         3         3         3         3         3         3         3         3
         3         3         3         3         3         3         3         3
         3         3         3         3         3         3         3         3
         3         3         3         3         3         3         3         3
         3         3         3         3         3         3         3         3
         3         3         3         3         3         3         3         3
         3         3         3         3         3         3         3         3
         3         3         3         3         3         3         3         3
         3         3         3         3         3         3         3         3
         3         3         3         3         3         3         3         3
         3         3         3         3         3         3         3         3
         3         3         3         3         3         3         3         3
         3         3         3         3         3         3         3         3
         3         3         3         3         3         3         3         3
         3         3         3         3         3         3         3         3
         3         3         3         3         3         3         3         3
         3         3         3         3         3         3         3         3
         3         3         3         3         3         3         3         3
         3         3         3         3         3         3         3         3
         3         3         3         3         3         3         3         3
         3         3         3         3         3         3         3         3
         3         3         3         3         3         3         3         3
         3         3         3         3         3         3         3         3
         3         3         3         3         3         3         3         3
         3         3         3         3         3         3         3         3
         3         3         3         3         3         3         3         3
         3         3         3         3         3         3         3         3
         3         3         3         3         3         3         3         3
         3         3         3         3         3         3         3         3
         3         3         3         3         3         3         3         3
         3         3         3         3         3         3         3         3
         3         3         3         3         3         3         3         3
         3         3         3         3         3         3         3         3
         3         3         3         3         3         3         3         3
         3         3         3         3         3         3         3         3
         3         3         3         3         3         3         3         3
         3         3         3         3         3         3         3         3
         3         3         3         3         3         3         3         3
         3         3         3         3         3         3         3         3
         3         3         3         3         3         3         3         3
         3         3         3         3         3         3         3         3
         3         3         3         3         3         3         3         3
         3         3         3         3         3         3         3         3
         3         3         3         3         3         3         3         3
         3         3         3         3         3         3         3         3
         3         3         3         3         3         3         3         3
         3         3         3         3         3         3         3         3
         3         3         3         3         3         3         3         3
         3         3         3         3         3         3         3         3
         3         3         3         3         3         3         3         3
         3         3         3         3         3         3         3         3
         3         3         3         3         3         3         3         3
         3         3         3         3         3         3         3         3
         3         3         3         3         3         3         3         3
         3         3         3         3         3         3         3         3
         3         3         3         3         3         3         3         3
         3         3         3         3         3         3         3         3
         3         3         3         3         3         3         3         3
         3         3         3         3         3         3         3         3
         3         3         3         3         3         3         3         3
         3         3         3         3         3         3         3         3
         3         3         3         3         3         3         3         3
         3         3         3         3         3         3         3         3
         3         3         3         3         3         3         3         3
         3         3         3         3         3         3         3         3
         3         3         3         3         3         3         3         3
         3         3         3         3         3         3         3         3
         3         3         3         3         3         3         3         3
         3         3         3         3         3         3         3         3
         3         3         3         3         3         3         3         3
         3         3         3         3         3         3         3         3
         3         3         3         3         3         3         3         3
         3         3         3         3         3         3         3         3
         3         3         3         3         3         3         3         3
         3         3         3         3         3         3         3         3
         3         3         3         3         3         3         3         3
         3         3         3         3         3         3         3         3
         3         3         3         3         3         3         3         3
         3         3         3         3         3         3         3         3
         3         3         3         3         3         3         3         3
         3         3         3         3         3         3         3         3
         3         3         3         3         3         3         3         3
         3         3         3         3         3         3         3         3
         3         3         3         3         3         3         3         3
         3         3         3         3         3         3         3         3
         3         3         3         3         3         3         3         3
         3         3         3         3         3         3         3         3
         3         3         3         3         3         3         3         3
         3         3         3         3         3         3         3         3
         3         3         3         3         3         3         3         3
         3         3         3         3         3         3         3         3
         3         3         3         3         3         3         3         3
         3         3         3         3         3         3         3         3
         3         3         3         3         3         3         3         3
         3         3         3         3         3         3         3         3
         3         3         3         3         3         3         3         3
         3         3         3         3         3         3         3         3
         3         3         3         3         3         3         3         3
         3         3         3         3         3         3         3         3
         3         3         3         3         3         3         3         3
         3         3         3         3         3         3         3         3
         3         3         3         3         3         3         3         3
         3         3         3         3         3         3         3         3
         3         3         3         3         3         3         3         3
         3         3         3         3         3         3         3         3
         3         3         3         3         3         3         3         3
         3         3         3         3         3         3         3         3
         3         3         3         3         3         3         3         3
         3         3         3         3         3         3         3         3
         3         3         3         3         3         3         3         3
         3         3         3         3         3         3         3         3
         3         3         3         3         3         3         3         3
         3         3         3         3         3         3         3         3
         3         3         3         3         3         3         3         3
         3         3         3         3         3         3         3         3
         3         3         3         3         3         3         3         3
         3         3         3         3         3         3         3         3
         3         3         3         3         3         3         3         3
         3         3         3         3         3         3         3         3
         3         3         3         3         3         3         3         3
         3         3         3         3         3         3         3         3
         3         3         3         3         3         3         3         3
         3         3         3         3         3         3         3         3
         3         3         3         3         3         3         3         3
         3         3         3         3         3         3         3         3
         3         3         3         3         3         3         3         3
         3         3         3         3         3         3         3         3
         3         3         3         3         3         3         3         3
         3         3         3         3         3         3         3         3
         3         3         3         3         3         3         3         3
         3         3         3         3         3         3         3         3
         3         3         3         3         3         3         3         3
         3         3         3         3         3         3         3         3
         3         3         3         3         3         3         3         3
         3         3         3         3         3         3         3         3
         3         3         3         3         3         3         3         3
         3         3         3         3         3         3         3         3
         3         3         3         3         3         3         3         3
         3         3         3         3         3         3         3         3
         3         3         3         3         3         3         3         3
         3         3         3         3         3         3         3         3
         3         3         3         3         3         3         3         3
         3         3         3         3         3         3         3         3
         3         3         3         3         3         3         3         3
         3         3         3         3         3         3         3         3
         3         3         3         3         3         3         3         3
         3         3         3         3         3         3         3         3
         3         3         3         3         3         3         3         3
         3         3         3         3         3         3         3         3
         3         3         3         3         3         3         3         3
         3         3         3         3         3         3         3         3
         3         3         3         3         3         3         3         3
         3         3         3         3         3         3         3         3
         3         3         3         3         3         3         3         3
         3         3         3         3         3         3         3         3
         3         3         3         3         3         3         3         3
         3         3         3         3         3         3         3         3
         3         3         3         3         3         3         3         3
         3         3         3         3         3         3         3         3
         3         3         3         3         3         3         3         3
         3         3         3         3         3         3         3         3
         3         3         3         3         3         3         3         3
         3         3         3         3         3         3         3         3
         3         3         3         3         3         3         3         3
         3         3         3         3         3         3         3         3
         3         3         3         3         3         3         3         3
         3         3         3         3         3         3         3         3
         3         3         3         3         3         3         3         3
         3         3         3         3         3         3         3         3
         3         3         3         3         3         3         3         3
         3         3         3         3         3         3         3         3
         3         3         3         3         3         3         3         3
         3         3         3         3         3         3         3         3
         3         3         3         3         3         3         3         3
         3         3         3         3         3         3         3         3
         3         3         3         3         3         3         3         3
         3         3         3         3         3         3         3         3
         3         3         3         3         3         3         3         3
         3         3         3         3         3         3         3         3
         3         3         3         3         3         3         3         3
         3         3         3         3         3         3         3         3
         3         3         3         3         3         3         3         3
         3         3         3         3         3         3         3         3
         3         3         3         3         3         3         3         3
         3         3         3         3         3         3         3         3
         3         3         3         3         3         3         3         3
         3         3         3         3         3         3         3         3
         3         3         3         3         3         3         3         3
         3         3         3         3         3         3         3         3
         3         3         3         3         3         3         3         3
         3         3         3         3         3         3         3         3
         3         3         3         3         3         3         3         3
         3         3         3         3         3         3         3         3
         3         3         3         3         3         3         3         3
         3         3         3         3         3         3         3         3
         3         3         3         3         3         3         3         3
         3         3         3         3         3         3         3         3
         3         3         3         3         3         3         3         3
         3         3         3         3         3         3         3         3
         3         3         3         3         3         3         3         3
         3         3         3         3         3         3         3         3
         3         3         3         3         3         3         3         3
         3         3         3         3         3         3         3         3
         3         3         3         3         3         3         3         3
         3         3         3         3         3         3         3         3
         3         3         3         3         3         3         3         3
         3         3         3         3         3         3         3         3
         3         3         3         3         3         3         3         3
         3         3         3         3         3         3         3         3
         3         3         3         3         3         3         3         3
         3         3         3         3         3         3         3         3
         3         3         3         3         3         3         3         3
         3         3         3         3         3         3         3         3
         3         3         3         3         3         3         3         3
         3         3         3         3         3         3         3         3
         3         3         3         3         3         3         3         3
         3         3         3         3         3         3         3         3
         3         3         3         3         3         3         3         3
         3         3         3         3         3         3         3         3
         3         3         3         3         3         3         3         3
         3         3         3         3         3         3         3         3
         3         3         3         3         3         3         3         3
         3         3         3         3         3         3         3         3
         3         3         3         3         3         3         3         3
         3         3         3         3         3         3         3         3
         3         3         3         3         3         3         3         3
         3         3         3         3         3         3         3         3
         3         3         3         3         3         3         3         3
         3         3         3         3         3         3         3         3
         3         3         3         3         3         3         3         3
         3         3         3         3         3         3         3         3
         3         3         3         3         3         3         3         3
         3         3         3         3         3         3         3         3
         3         3         3         3         3         3         3         3
         3         3         3         3         3         3         3         3
         3         3         3         3         3         3         3         3
         3         3         3         3         3         3         3         3
         3         3         3         3         3         3         3         3
         3         3         3         3         3         3         3         3
         3         3         3         3         3         3         3         3
         3         3         3         3         3         3         3         3
         3         3         3         3         3         3         3         3
         3         3         3         3         3         3         3         3
         3         3         3         3         3         3         3         3
         3         3         3         3         3         3         3         3
         3         3         3         3         3         3         3         3
         3         3         3         3         3         3         3         3
         3         3         3         3         3         3         3         3
         3         3         3         3         3         3         3         3
         3         3         3         3         3         3         3         3
         3         3         3         3         3         3         3         3
         3         3         3         3         3         3         3         3
         3         3         3         3         3         3         3         3
         3         3         3         3         3         3         3         3
         3         3         3         3         3         3         3         3
         3         3         3         3         3         3         3         3
         3         3         3         3         3         3         3         3
         3         3         3         3         3         3         3         3
         3         3         3         3         3         3         3         3
         3         3         3         3         3         3         3         3
         3         3         3         3         3         3         3         3
         3         3         3         3         3         3         3         3
         3         3         3         3         3         3         3         3
         3         3         3         3         3         3         3         3
         3         3         3         3         3         3         3         3
         3         3         3         3         3         3         3         3
         3         3         3         3         3         3         3         3
         3         3         3         3         3         3         3         3
         3         3         3         3         3         3         3         3
         3         3         3         3         3         3         3         3
         3         3         3         3         3         3         3         3
         3         3         3         3         3         3         3         3
         3         3         3         3         3         3         3         3
         3         3         3         3         3         3         3         3
         3         3         3         3         3         3         3         3
         3         3         3         3         3         3         3         3
         3         3         3         3         3         3         3         3
         3         3         3         3         3         3         3         3
         3         3         3         3         3         3         3         3
         3         3         3         3         3         3         3         3
         3         3         3         3         3         3         3         3
         3         3         3         3         3         3         3         3
         3         3         3         3         3         3         3         3
         3         3         3         3         3         3         3         3
         3         3         3         3         3         3         3         3
         3         3         3         3         3         3         3         3
         3         3         3         3         3         3         3         3
         3         3         3         3         3         3         3         3
         3         3         3         3         3         3         3         3
         3         3         3         3         3         3         3         3
         3         3         3         3         3         3         3         3
         3         3         3         3         3         3         3         3
         3         3         3         3         3         3         3         3
         3         3         3         3         3         3         3         3
         3         3         3         3         3         3         3         3
         3         3         3         3         3         3         3         3
         3         3         3         3         3         3         3         3
         3         3         3         3         3         3         3         3
         3         3         3         3         3         3         3         3
         3         3         3         3         3         3         3         3
         3         3         3         3         3         3         3         3
         3         3         3         3         3         3         3         3
         3         3         3         3         3         3         3         3
         3         3         3         3         3         3         3         3
         3         3         3         3         3         3         3         3
         3         3         3         3         3         3         3         3
         3         3         3         3         3         3         3         3
         3         3         3         3         3         3         3         3
         3         3         3         3         3         3         3         3
         3         3         3         3         3         3         3         3
         3         3         3         3         3         3         3         3
         3         3         3         3         3         3         3         3
         3         3         3         3         3         3         3         3
         3         3         3         3         3         3         3         3
         3         3         3         3         3         3         3         3
         3         3         3         3         3         3         3         3
         3         3         3         3         3         3         3         3
         3         3         3         3         3         3         3         3
         3         3         3         3         3         3         3         3
         3         3         3         3         3         3         3         3
         3         3         3         3         3         3         3         3
         3         3         3         3         3         3         3         3
         3         3         3         3         3         3         3         3
         3         3         3         3         3         3         3         3
         3         3         3         3         3         3         3         3
         3         3         3         3         3         3         3         3
         3         3         3         3         3         3         3         3
         3         3         3         3         3         3         3         3
         3         3         3         3         3         3         3         3
         3         3         3         3         3         3         3         3
         3         3         3         3         3         3         3         3
         3         3         3         3         3         3         3         3
         3         3         3         3         3         3         3         3
         3         3         3         3         3         3         3         3
         3         3         3         3         3         3         3         3
         3         3         3         3         3         3         3         3
         3         3         3         3         3         3         3         3
         3         3         3         3         3         3         3         3
         3         3         3         3         3         3         3         3
         3         3         3         3         3         3         3         3
         3         3         3         3         3         3         3         3
         3         3         3         3         3         3         3         3
         3         3         3         3         3         3         3         3
         3         3         3         3         3         3         3         3
         3         3         3         3         3         3         3         3
         3         3         3         3         3         3         3         3
         3         3         3         3         3         3         3         3
         3         3         3         3         3         3         3         3
         3         3         3         3         3         3         3         3
         3         3         3         3         3         3         3         3
         3         3         3         3         3         3         3         3
         3         3         3         3         3         3         3         3
         3         3         3         3         3         3         3         3
         3         3         3         3         3         3         3         3
         3         3         3         3         3         3         3         3
         3         3         3         3         3         3         3         3
         3         3         3         3         3         3         3         3
         3         3         3         3         3         3         3         3
         3         3         3         3         3         3         3         3
         3         3         3         3         3         3         3         3
         3         3         3         3         3         3         3         3
         3         3         3         3         3         3         3         3
         3         3         3         3         3         3         3         3
         3         3         3         3         3         3         3         3
         3         3         3         3         3         3         3         3
         3         3         3         3         3         3         3         3
         3         3         3         3         3         3         3         3
         3         3         3         3         3         3         3         3
         3         3         3         3         3         3         3         3
         3         3         3         3         3         3         3         3
         3         3         3         3         3         3         3         3
         3         3         3         3         3         3         3         3
         3         3         3         3         3         3         3         3
         3         3         3         3         3         3         3         3
         3         3         3         3         3         3         3         3
         3         3         3         3         3         3         3         3
         3         3         3         3         3         3         3         3
         3         3         3         3         3         3         3         3
         3         3         3         3         3         3         3         3
         3         3         3         3         3         3         3         3
         3         3         3         3         3         3         3         3
         3         3         3         3         3         3         3         3
         3         3         3         3         3         3         3         3
         3         3         3         3         3         3         3         3
         3         3         3         3         3         3         3         3
         3         3         3         3         3         3         3         3
         3         3         3         3         3         3         3         3
         3         3         3         3         3         3         3         3
         3         3         3         3         3         3         3         3
         3         3         3         3         3         3         3         3
         3         3         3         3         3         3         3         3
         3         3         3         3         3         3         3         3
         3         3         3         3         3         3         3         3
         3         3         3         3         3         3         3         3
         3         3         3         3         3         3         3         3
         3         3         3         3         3         3         3         3
         3         3         3         3         3         3         3         3
         3         3         3         3         3         3         3         3
         3         3         3         3         3         3         3         3
         3         3         3         3         3         3         3         3
         3         3         3         3         3         3         3         3
         3         3         3         3         3         3         3         3
         3         3         3         3         3         3         3         3
         3         3         3         3         3         3         3         3
         3         3         3         3         3         3         3         3
         3         3         3         3         3         3         3         3
         3         3         3         3         3         3         3         3
         3         3         3         3         3         3         3         3
         3         3         3         3         3         3         3         3
         3         3         3         3         3         3         3         3
         3         3         3         3         3         3         3         3
         3         3         3         3         3         3         3         3
         3         3         3         3         3         3         3         3
         3         3         3         3         3         3         3         3
         3         3         3         3         3         3         3         3
         3         3         3         3         3         3         3         3
         3         3         3         3         3         3         3         3
         3         3         3         3         3         3         3         3
         3         3         3         3         3         3         3         3
         3         3         3         3         3         3         3         3
         3         3         3         3         3         3         3         3
         3         3         3         3         3         3         3         3
         3         3         3         3         3         3         3         3
         3         3         3         3         3         3         3         3
         3         3         3         3         3         3         3         3
         3         3         3         3         3         3         3         3
         3         3         3         3         3         3         3         3
         3         3         3         3         3         3         3         3
         3         3         3         3         3         3         3         3
         3         3         3         3         3         3         3         3
         3         3         3         3         3         3         3         3
         3         3         3         3         3         3         3         3
         3         3         3         3         3         3         3         3
         3         3         3         3         3         3         3         3
         3         3         3         3         3         3         3         3
         3         3         3         3         3         3         3         3
         3         3         3         3         3         3         3         3
         3         3         3         3         3         3         3         3
         3         3         3         3         3         3         3         3
         3         3         3         3         3         3         3         3
         3         3         3         3         3         3         3         3
         3         3         3         3         3         3         3         3
         3         3         3         3         3         3         3         3
         3         3         3         3         3         3         3         3
         3         3         3         3         3         3         3         3
         3         3         3         3         3         3         3         3
         3         3         3         3         3         3         3         3
         3         3         3         3         3         3         3         3
         3         3         3         3         3         3         3         3
         3         3         3         3         3         3         3         3
         3         3         3         3         3         3         3         3
         3         3         3         3         3         3         3         3
         3         3         3         3         3         3         3         3
         3         3         3         3         3         3         3         3
         3         3         3         3         3         3         3         3
         3         3         3         3         3         3         3         3
         3         3         3         3         3         3         3         3
         3         3         3         3         3         3         3         3
         3         3         3         3         3         3         3         3
         3         3         3         3         3         3         3         3
         3         3         3         3         3         3         3         3
         3         3         3         3         3         3         3         3
         3         3         3         3         3         3         3         3
         3         3         3         3         3         3         3         3
         3         3         3         3         3         3         3         3
         3         3         3         3         3         3         3         3
         3         3         3         3         3         3         3         3
         3         3         3         3         3         3         3         3
         3         3         3         3         3         3         3         3
         3         3         3         3         3         3         3         3
         3         3         3         3         3         3         3         3
         3         3         3         3         3         3         3         3
         3         3         3         3         3         3         3         3
         3         3         3         3         3         3         3         3
         3         3         3         3         3         3         3         3
         3         3         3         3         3         3         3         3
         3         3         3         3         3         3         3         3
         3         3         3         3         3         3         3         3
         3         3         3         3         3         3         3         3
         3         3         3         3         3         3         3         3
         3         3         3         3         3         3         3         3
         3         3         3         3         3         3         3         3
         3         3         3         3         3         3         3         3
         3         3         3         3         3         3         3         3
         3         3         3         3         3         3         3         3
         3         3         3         3         3         3         3         3
         3         3         3         3         3         3         3         3
         3         3         3         3         3         3         3         3
         3         3         3         3         3         3         3         3
         3         3         3         3         3         3         3         3
         3         3         3         3         3         3         3         3
         3         3         3         3         3         3         3         3
         3         3         3         3         3         3         3         3
         3         3         3         3         3         3         3         3
         3         3         3         3         3         3         3         3
         3         3         3         3         3         3         3         3
         3         3         3         3         3         3         3         3
         3         3         3         3         3         3         3         3
         3         3         3         3         3         3         3         3
         3         3         3         3         3         3         3         3
         3         3         3         3         3         3         3         3
         3         3         3         3         3         3         3         3
         3         3         3         3         3         3         3         3
         3         3         3         3         3         3         3         3
         3         3         3         3         3         3         3         3
         3         3         3         3         3         3         3         3
         3         3         3         3         3         3         3         3
         3         3         3         3         3         3         3         3
         3         3         3         3         3         3         3         3
         3         3         3         3         3         3         3         3
         3         3         3         3         3         3         3         3
         3         3         3         3         3         3         3         3
         3         3         3         3         3         3         3         3
         3         3         3         3         3         3         3         3
         3         3         3         3         3         3         3         3
         3         3         3         3         3         3         3         3
         3         3         3         3         3         3         3         3
         3         3         3         3         3         3         3         3
         3         3         3         3         3         3         3         3
         3         3         3         3         3         3         3         3
         3         3         3         3         3         3         3         3
         3         3         3         3         3         3         3         3
         3         3         3         3         3         3         3         3
         3         3         3         3         3         3         3         3
         3         3         3         3         3         3         3         3
         3         3         3         3         3         3         3         3
         3         3         3         3         3         3         3         3
         3         3         3         3         3         3         3         3
         3         3         3         3         3         3         3         3
         3         3         3         3         3         3         3         3
         3         3         3         3         3         3         3         3
         3         3         3         3         3         3         3         3
         3         3         3         3         3         3         3         3
         3         3         3         3         3         3         3         3
         3         3         3         3         3         3         3         3
         3         3         3         3         3         3         3         3
         3         3         3         3         3         3         3         3
         3         3         3         3         3         3         3         3
         3         3         3         3         3         3         3         3
         3         3         3         3         3         3         3         3
         3         3         3         3         3         3         3         3
         3         3         3         3         3         3         3         3
         3         3         3         3         3         3         3         3
         3         3         3         3         3         3         3         3
         3         3         3         3         3         3         3         3
         3         3         3         3         3         3         3         3
         3         3         3         3         3         3         3         3
         3         3         3         3         3         3         3         3
         3         3         3         3         3         3         3         3
         3         3         3         3         3         3         3         3
         3         3         3         3         3         3         3         3
         3         3         3         3         3         3         3         3
         3         3         3         3         3         3         3         3
         3         3         3         3         3         3         3         3
         3         3         3         3         3         3         3         3
         3         3         3         3         3         3         3         3
         3         3         3         3         3         3         3         3
         3         3         3         3         3         3         3         3
         3         3         3         3         3         3         3         3
         3         3         3         3         3         3         3         3
         3         3         3         3         3         3         3         3
         3         3         3         3         3         3         3         3
         3         3         3         3         3         3         3         3
         3         3         3         3         3         3         3         3
         3         3         3         3         3         3         3         3
         3         3         3         3         3         3         3         3
         3         3         3         3         3         3         3         3
         3         3         3         3         3         3         3         3
         3         3         3         3         3         3         3         3
         3         3         3         3         3         3         3         3
         3         3         3         3         3         3         3         3
         3         3         3         3         3         3         3         3
         3         3         3         3         3         3         3         3
         3         3         3         3         3         3         3         3
         3         3         3         3         3         3         3         3
         3         3         3         3         3         3         3         3
         3         3         3         3         3         3         3         3
         3         3         3         3         3         3         3         3
         3         3         3         3         3         3         3         3
         3         3         3         3         3         3         3         3
         3         3         3         3         3         3         3         3
         3         3         3         3         3         3         3         3
         3         3         3         3         3         3         3         3
         3         3         3         3         3         3         3         3
         3         3         3         3         3         3         3         3
         3         3         3         3         3         3         3         3
         3         3         3         3         3         3         3         3
         3         3         3         3         3         3         3         3
         3         3         3         3         3         3         3         3
         3         3         3         3         3         3         3         3
         3         3         3         3         3         3         3         3
         3         3         3         3         3         3         3         3
         3         3         3         3         3         3         3         3
         3         3         3         3         3         3         3         3
         3         3         3         3         3         3         3         3
         3         3         3         3         3         3         3         3
         3         3         3         3         3         3         3         3
         3         3         3         3         3         3         3         3
         3         3         3         3         3         3         3         3
         3         3         3         3         3         3         3         3
         3         3         3         3         3         3         3         3
         3         3         3         3         3         3         3         3
         3         3         3         3         3         3         3         3
         3         3         3         3         3         3         3         3
         3         3         3         3         3         3         3         3
         3         3         3         3         3         3         3         3
         3         3         3         3         3         3         3         3
         3         3         3         3         3         3         3         3
         3         3         3         3         3         3         3         3
         3         3         3         3         3         3         3         3
         3         3         3         3         3         3         3         3
         3         3         3         3         3         3         3         3
         3         3         3         3         3         3         3         3
         3         3         3         3         3         3         3         3
         3         3         3         3         3         3         3         3
         3         3         3         3         3         3         3         3
         3         3         3         3         3         3         3         3
         3         3         3         3         3         3         3         3
         3         3         3         3         3         3         3         3
         3         3         3         3         3         3         3         3
         3         3         3         3         3         3         3         3
         3         3         3         3         3         3         3         3
         3         3         3         3         3         3         3         3
         3         3         3         3         3         3         3         3
         3         3         3         3         3         3         3         3
         3         3         3         3         3         3         3         3
         3         3         3         3         3         3         3         3
         3         3         3         3         3         3         3         3
         3         3         3         3         3         3         3         3
         3         3         3         3         3         3         3         3
         3         3         3         3         3         3         3         3
         3         3         3         3         3         3         3         3
         3         3         3         3         3         3         3         3
         3         3         3         3         3         3         3         3
         3         3         3         3         3         3         3         3
         3         3         3         3         3         3         3         3
         3         3         3         3         3         3         3         3
         3         3         3         3         3         3         3         3
         3         3         3         3         3         3         3         3
         3         3         3         3         3         3         3         3
         3         3         3         3         3         3         3         3
         3         3         3         3         3         3         3         3
         3         3         3         3         3         3         3         3
         3         3         3         3         3         3         3         3
         3         3         3         3         3         3         3         3
         3         3         3         3         3         3         3         3
         3         3         3         3         3         3         3         3
         3         3         3         3         3         3         3         3
         3         3         3         3         3         3         3         3
         3         3         3         3         3         3         3         3
         3         3         3         3         3         3         3         3
         3         3         3         3         3         3         3         3
         3         3         3         3         3         3         3         3
         3         3         3         3         3         3         3         3
         3         3         3         3         3         3         3         3
         3         3         3         3         3         3         3         3
         3         3         3         3         3         3         3         3
         3         3         3         3         3         3         3         3
         3         3         3         3         3         3         3         3
         3         3         3         3         3         3         3         3
         3         3         3         3         3         3         3         3
         3         3         3         3         3         3         3         3
         3         3         3         3         3         3         3         3
         3         3         3         3         3         3         3         3
         3         3         3         3         3         3         3         3
         3         3         3         3         3         3         3         3
         3         3         3         3         3         3         3         3
         3         3         3         3         3         3         3         3
         3         3         3         3         3         3         3         3
         3         3         3         3         3         3         3         3
         3         3         3         3         3         3         3         3
         3         3         3         3         3         3         3         3
         3         3         3         3         3         3         3         3
         3         3         3         3         3         3         3         3
         3         3         3         3         3         3         3         3
         3         3         3         3         3         3         3         3
         3         3         3         3         3         3         3         3
         3         3         3         3         3         3         3         3
         3         3         3         3         3         3         3         3
         3         3         3         3         3         3         3         3
         3         3         3         3         3         3         3         3
         3         3         3         3         3         3         3         3
         3         3         3         3         3         3         3         3
         3         3         3         3         3         3         3         3
         3         3         3         3         3         3         3         3
         3         3         3         3         3         3         3         3
         3         3         3         3         3         3         3         3
         3         3         3         3         3         3         3         3
         3         3         3         3         3         3         3         3
         3         3         3         3         3         3         3         3
         3         3         3         3         3         3         3         3
         3         3         3         3         3         3         3         3
         3         3         3         3         3         3         3         3
         3         3         3         3         3         3         3         3
         3         3         3         3         3         3         3         3
         3         3         3         3         3         3         3         3
         3         3         3         3         3         3         3         3
         3         3         3         3         3         3         3         3
         3         3         3         3         3         3         3         3
         3         3         3         3         3         3         3         3
         3         3         3         3         3         3         3         3
         3         3         3         3         3         3         3         3
         3         3         3         3         3         3         3         3
         3         3         3         3         3         3         3         3
         3         3         3         3         3         3         3         3
         3         3         3         3         3         3         3         3
         3         3         3         3         3         3         3         3
         3         3         3         3         3         3         3         3
         3         3         3         3         3         3         3         3
         3         3         3         3         3         3         3         3
         3         3         3         3         3         3         3         3
         3         3         3         3         3         3         3         3
         3         3         3         3         3         3         3         3
         3         3         3         3         3         3         3         3
         3         3         3         3         3         3         3         3
         3         3         3         3         3         3         3         3
         3         3         3         3         3         3         3         3
         3         3         3         3         3         3         3         3
         3         3         3         3         3         3         3         3
         3         3         3         3         3         3         3         3
         3         3         3         3         3         3         3         3
         3         3         3         3         3         3         3         3
         3         3         3         3         3         3         3         3
         3         3         3         3         3         3         3         3
         3         3         3         3         3         3         3         3
         3         3         3         3         3         3         3         3
         3         3         3         3         3         3         3         3
         3         3         3         3         3         3         3         3
         3         3         3         3         3         3         3         3
         3         3         3         3         3         3         3         3
         3         3         3         3         3         3         3         3
         3         3         3         3         3         3         3         3
         3         3         3         3         3         3         3         3
         3         3         3         3         3         3         3         3
         3         3         3         3         3         3         3         3
         3         3         3         3         3         3         3         3
         3         3         3         3         3         3         3         3
         3         3         3         3         3         3         3         3
         3         3         3         3         3         3         3         3
         3         3         3         3         3         3         3         3
         3         3         3         3         3         3         3         3
         3         3         3         3         3         3         3         3
         3         3         3         3         3         3         3         3
         3         3         3         3         3         3         3         3
         3         3         3         3         3         3         3         3
         3         3         3         3         3         3         3         3
         3         3         3         3         3         3         3         3
         3         3         3         3         3         3         3         3
         3         3         3         3         3         3         3         3
         3         3         3         3         3         3         3         3
         3         3         3         3         3         3         3         3
         3         3         3         3         3         3         3         3
         3         3         3         3         3         3         3         3
         3         3         3         3         3         3         3         3
         3         3         3         3         3         3         3         3
         3         3         3         3         3         3         3         3
         3         3         3         3         3         3         3         3
         3         3         3         3         3         3         3         3
         3         3         3         3         3         3         3         3
         3         3         3         3         3         3         3         3
         3         3         3         3         3         3         3         3
         3         3         3         3         3         3         3         3
         3         3         3         3         3         3         3         3
         3         3         3         3         3         3         3         3
         3         3         3         3         3         3         3         3
         3         3         3         3         3         3         3         3
         3         3         3         3         3         3         3         3
         3         3         3         3         3         3         3         3
         3         3         3         3         3         3         3         3
         3         3         3         3         3         3         3         3
         3         3         3         3         3         3         3         3
         3         3         3         3         3         3         3         3
         3         3         3         3         3         3         3         3
         3         3         3         3         3         3         3         3
         3         3         3         3         3         3         3         3
         3         3         3         3         3         3         3         3
         3         3         3         3         3         3         3         3
         3         3         3         3         3         3         3         3
         3         3         3         3         3         3         3         3
         3         3         3         3         3         3         3         3
         3         3         3         3         3         3         3         3
         3         3         3         3         3         3         3         3
         3         3         3         3         3         3         3         3
         3         3         3         3         3         3         3         3
         3         3         3         3         3         3         3         3
         3         3         3         3         3         3         3         3
         3         3         3         3         3         3         3         3
         3         3         3         3         3         3         3         3
         3         3         3         3         3         3         3         3
         3         3         3         3         3         3         3         3
         3         3         3         3         3         3         3         3
         3         3         3         3         3         3         3         3
         3         3         3         3         3         3         3         3
         3         3         3         3         3         3         3         3
         3         3         3         3         3         3         3         3
         3         3         3         3         3         3         3         3
         3         3         3         3         3         3         3         3
         3         3         3         3         3         3         3         3
         3         3         3         3         3         3         3         3
         3         3         3         3         3         3         3         3
         3         3         3         3         3         3         3         3
         3         3         3         3         3         3         3         3
         3         3         3         3         3         3         3         3
         3         3         3         3         3         3         3         3
         3         3         3         3         3         3         3         3
         3         3         3         3         3         3         3         3
         3         3         3         3         3         3         3         3
         3         3         3         3         3         3         3         3
         3         3         3         3         3         3         3         3
         3         3         3         3         3         3         3         3
         3         3         3         3         3         3         3         3
         3         3         3         3         3         3         3         3
         3         3         3         3         3         3         3         3
         3         3         3         3         3         3         3         3
         3         3         3         3         3         3         3         3
         3         3         3         3         3         3         3         3
         3         3         3         3         3         3         3         3
         3         3         3         3         3         3         3         3
         3         3         3         3         3         3         3         3
         3         3         3         3         3         3         3         3
         3         3         3         3         3         3         3         3
         3         3         3         3         3         3         3         3
         3         3         3         3         3         3         3         3
         3         3         3         3         3         3         3         3
         3         3         3         3         3         3         3         3
         3         3         3         3         3         3         3         3
         3         3         3         3         3         3         3         3
         3         3         3         3         3         3         3         3
         3         3         3         3         3         3         3         3
         3         3         3         3         3         3         3         3
         3         3         3         3         3         3         3         3
         3         3         3         3         3         3         3         3
         3         3         3         3         3         3         3         3
         3         3         3         3         3         3         3         3
         3         3         3         3         3         3         3         3
         3         3         3         3         3         3         3         3
         3         3         3         3         3         3         3         3
         3         3         3         3         3         3         3         3
         3         3         3         3         3         3         3         3
         3         3         3         3         3         3         3         3
         3         3         3         3         3         3         3         3
         3         3         3         3         3         3         3         3
         3         3         3         3         3         3         3         3
         3         3         3         3         3         3         3         3
         3         3         3         3         3         3         3         3
         3         3         3         3         3         3         3         3
         3         3         3         3         3         3         3         3
         3         3         3         3         3         3         3         3
         3         3         3         3         3         3         3         3
         3         3         3         3         3         3         3         3
         3         3         3         3         3         3         3         3
         3         3         3         3         3         3         3         3
         3         3         3         3         3         3         3         3
         3         3         3         3         3         3         3         3
         3         3         3         3         3         3         3         3
         3         3         3         3         3         3         3         3
         3         3         3         3         3         3         3         3
         3         3         3         3         3         3         3         3
         3         3         3         3         3         3         3         3
         3         3         3         3         3         3         3         3
         3         3         3         3         3         3         3         3
         3         3         3         3         3         3         3         3
         3         3         3         3         3         3         3         3
         3         3         3         3         3         3         3         3
         3         3         3         3         3         3         3         3
         3         3         3         3         3         3         3         3
         3         3         3         3         3         3         3         3
         3         3         3         3         3         3         3         3
         3         3         3         3         3         3         3         3
         3         3         3         3         3         3         3         3
         3         3         3         3         3         3         3         3
         3         3         3         3         3         3         3         3
         3         3         3         3         3         3         3         3
         3         3         3         3         3         3         3         3
         3         3         3         3         3         3         3         3
         3         3         3         3         3         3         3         3
         3         3         3         3         3         3         3         3
         3         3         3         3         3         3         3         3
         3         3         3         3         3         3         3         3
         3         3         3         3         3         3         3         3
         3         3         3         3         3         3         3         3
         3         3         3         3         3         3         3         3
         3         3         3         3         3         3         3         3
         3         3         3         3         3         3         3         3
         3         3         3         3         3         3         3         3
         3         3         3         3         3         3         3         3
         3         3         3         3         3         3         3         3
         3         3         3         3         3         3         3         3
         3         3         3         3         3         3         3         3
         3         3         3         3         3         3         3         3
         3         3         3         3         3         3         3         3
         3         3         3         3         3         3         3         3
         3         3         3         3         3         3         3         3
         3         3         3         3         3         3         3         3
         3         3         3         3         3         3         3         3
         3         3         3         3         3         3         3         3
         3         3         3         3         3         3         3         3
         3         3         3         3         3         3         3         3
         3         3         3         3         3         3         3         3
         3         3         3         3         3         3         3         3
         3         3         3         3         3         3         3         3
         3         3         3         3         3         3         3         3
         3         3         3         3         3         3         3         3
         3         3         3         3         3         3         3         3
         3         3         3         3         3         3         3         3
         3         3         3         3         3         3         3         3
         3         3         3         3         3         3         3         3
         3         3         3         3         3         3         3         3
         3         3         3         3         3         3         3         3
         3         3         3         3         3         3         3         3
         3         3         3         3         3         3         3         3
         3         3         3         3         3         3         3         3
         3         3         3         3         3         3         3         3
         3         3         3         3         3         3         3         3
         3         3         3         3         3         3         3         3
         3         3         3         3         3         3         3         3
         3         3         3         3         3         3         3         3
         3         3         3         3         3         3         3         3
         3         3         3         3         3         3         3         3
         3         3         3         3         3         3         3         3
         3         3         3         3         3         3         3         3
         3         3         3         3         3         3         3         3
         3         3         3         3         3         3         3         3
         3         3         3         3         3         3         3         3
         3         3         3         3         3         3         3         3
         3         3         3         3         3         3         3         3
         3         3         3         3         3         3         3         3
         3         3         3         3         3         3         3         3
         3         3         3         3         3         3         3         3
         3         3         3         3         3         3         3         3
         3         3         3         3         3         3         3         3
         3         3         3         3         3         3         3         3
         3         3         3         3         3         3         3         3
         3         3         3         3         3         3         3         3
         3         3         3         3         3         3         3         3
         3         3         3         3         3         3         3         3
         3         3         3         3         3         3         3         3
         3         3         3         3         3         3         3         3
         3         3         3         3         3         3         3         3
         3         3         3         3         3         3         3         3
         3         3         3         3         3         3         3         3
         3         3         3         3         3         3         3         3
         3         3         3         3         3         3         3         3
         3         3         3         3         3         3         3         3
         3         3         3         3         3         3         3         3
         3         3         3         3         3         3         3         3
         3         3         3         3         3         3         3         3
         3         3         3         3         3         3         3         3
         3         3         3         3         3         3         3         3
         3         3         3         3         3         3         3         3
         3         3         3         3         3         3         3         3
         3         3         3         3         3         3         3         3
         3         3         3         3         3         3         3         3
         3         3         3         3         3         3         3         3
         3         3         3         3         3         3         3         3
         3         3         3         3         3         3         3         3
         3         3         3         3         3         3         3         3
         3         3         3         3         3         3         3         3
         3         3         3         3         3         3         3         3
         3         3         3         3         3         3         3         3
         3         3         3         3         3         3         3         3
         3         3         3         3         3         3         3         3
         3         3         3         3         3         3         3         3
         3         3         3         3         3         3         3         3
         3         3         3         3         3         3         3         3
         3         3         3         3         3         3         3         3
         3         3         3         3         3         3         3         3
         3         3         3         3         3         3         3         3
         3         3         3         3         3         3         3         3
         3         3         3         3         3         3         3         3
         3         3         3         3         3         3         3         3
         3         3         3         3         3         3         3         3
         3         3         3         3         3         3         3         3
         3         3         3         3         3         3         3         3
         3         3         3         3         3         3         3         3
         3         3         3         3         3         3         3         3
         3         3         3         3         3         3         3         3
         3         3         3         3         3         3         3         3
         3         3         3         3         3         3         3         3
         3         3         3         3         3         3         3         3
         3         3         3         3         3         3         3         3
         3         3         3         3         3         3         3         3
         3         3         3         3         3         3         3         3
         3         3         3         3         3         3         3         3
         3         3         3         3         3         3         3         3
         3         3         3         3         3         3         3         3
         3         3         3         3         3         3         3         3
         3         3         3         3         3         3         3         3
         3         3         3         3         3         3         3         3
         3         3         3         3         3         3         3         3
         3         3         3         3         3         3         3         3
         3         3         3         3         3         3         3         3
         3         3         3         3         3         3         3         3
         3         3         3         3         3         3         3         3
         3         3         3         3         3         3         3         3
         3         3         3         3         3         3         3         3
         3         3         3         3         3         3         3         3
         3         3         3         3         3         3         3         3
         3         3         3         3         3         3         3         3
         3         3         3         3         3         3         3         3
         3         3         3         3         3         3         3         3
         3         3         3         3         3         3         3         3
         3         3         3         3         3         3         3         3
         3         3         3         3         3         3         3         3
         3         3         3         3         3         3         3         3
         3         3         3         3         3         3         3         3
         3         3         3         3         3         3         3         3
         3         3         3         3         3         3         3         3
         3         3         3         3         3         3         3         3
         3         3         3         3         3         3         3         3
         3         3         3         3         3         3         3         3
         3         3         3         3         3         3         3         3
         3         3         3         3         3         3         3         3
         3         3         3         3         3         3         3         3
         3         3         3         3         3         3         3         3
         3         3         3         3         3         3         3         3
         3         3         3         3         3         3         3         3
         3         3         3         3         3         3         3         3
         3         3         3         3         3         3         3         3
         3         3         3         3         3         3         3         3
         3         3         3         3         3         3         3         3
         3         3         3         3         3         3         3         3
         3         3         3         3         3         3         3         3
         3         3         3         3         3         3         3         3
         3         3         3         3         3         3         3         3
         3         3         3         3         3         3         3         3
         3         3         3         3         3         3         3         3
         3         3         3         3         3         3         3         3
         3         3         3         3         3         3         3         3
         3         3         3         3         3         3         3         3
         3         3         3         3         3         3         3         3
         3         3         3         3         3         3         3         3
         3         3         3         3         3         3         3         3
         3         3         3         3         3         3         3         3
         3         3         3         3         3         3         3         3
         3         3         3         3         3         3         3         3
         3         3         3         3         3         3         3         3
         3         3         3         3         3         3         3         3
         3         3         3         3         3         3         3         3
         3         3         3         3         3         3         3         3
         3         3         3         3         3         3         3         3
         3         3         3         3         3         3         3         3
         3         3         3         3         3         3         3         3
         3         3         3         3         3         3         3         3
         3         3         3         3         3         3         3         3
         3         3         3         3         3         3         3         3
         3         3         3         3         3         3         3         3
         3         3         3         3         3         3         3         3
         3         3         3         3         3         3         3         3
         3         3         3         3         3         3         3         3
         3         3         3         3         3         3         3         3
         3         3         3         3         3         3         3         3
         3         3         3         3         3         3         3         3
         3         3         3         3         3         3         3         3
         3         3         3         3         3         3         3         3
         3         3         3         3         3         3         3         3
         3         3         3         3         3         3         3         3
         3         3         3         3         3         3         3         3
         3         3         3         3         3         3         3         3
         3         3         3         3         3         3         3         3
         3         3         3         3         3         3         3         3
         3         3         3         3         3         3         3         3
         3         3         3         3         3         3         3         3
         3         3         3         3         3         3         3         3
         3         3         3         3         3         3         3         3
         3         3         3         3         3         3         3         3
         3         3         3         3         3         3         3         3
         3         3         3         3         3         3         3         3
         3         3         3         3         3         3         3         3
         3         3         3         3         3         3         3         3
         3         3         3         3         3         3         3         3
         3         3         3         3         3         3         3         3
         3         3         3         3         3         3         3         3
         3         3         3         3         3         3         3         3
         3         3         3         3         3         3         3         3
         3         3         3         3         3         3         3         3
         3         3         3         3         3         3         3         3
         3         3         3         3         3         3         3         3
         3         3         3         3         3         3         3         3
         3         3         3         3         3         3         3         3
         3         3         3         3         3         3         3         3
         3         3         3         3         3         3         3         3
         3         3         3         3         3         3         3         3
         3         3         3         3         3         3         3         3
         3         3         3         3         3         3         3         3
         3         3         3         3         3         3         3         3
         3         3         3         3         3         3         3         3
         3         3         3         3         3         3         3         3
         3         3         3         3         3         3         3         3
         3         3         3         3         3         3         3         3
         3         3         3         3         3         3         3         3
         3         3         3         3         3         3         3         3
         3         3         3         3         3         3         3         3
         3         3         3         3         3         3         3         3
         3         3         3         3         3         3         3         3
         3         3         3         3         3         3         3         3
         3         3         3         3         3         3         3         3
         3         3         3         3         3         3         3         3
         3         3         3         3         3         3         3         3
         3         3         3         3         3         3         3         3
         3         3         3         3         3         3         3         3
         3         3         3         3         3         3         3         3
         3         3         3         3         3         3         3         3
         3         3         3         3         3         3         3         3
         3         3         3         3         3         3         3         3
         3         3         3         3         3         3         3         3
         3         3         3         3         3         3         3         3
         3         3         3         3         3         3         3         3
         3         3         3         3         3         3         3         3
         3         3         3         3         3         3         3         3
         3         3         3         3         3         3         3         3
         3         3         3         3         3         3         3         3
         3         3         3         3         3         3         3         3
         3         3         3         3         3         3         3         3
         3         3         3         3         3         3         3         3
         3         3         3         3         3         3         3         3
         3         3         3         3         3         3         3         3
         3         3         3         3         3         3         3         3
         3         3         3         3         3         3         3         3
         3         3         3         3         3         3         3         3
         3         3         3         3         3         3         3         3
         3         3         3         3         3         3         3         3
         3         3         3         3         3         3         3         3
         3         3         3         3         3         3         3         3
         3         3         3         3         3         3         3         3
         3         3         3         3         3         3         3         3
         3         3         3         3         3         3         3         3
         3         3         3         3         3         3         3         3
         3         3         3         3         3         3         3         3
         3         3         3         3         3         3         3         3
         3         3         3         3         3         3         3         3
         3         3         3         3         3         3         3         3
         3         3         3         3         3         3         3         3
         3         3         3         3         3         3         3         3
         3         3         3         3         3         3         3         3
         3         3         3         3         3         3         3         3
         3         3         3         3         3         3         3         3
         3         3         3         3         3         3         3         3
         3         3         3         3         3         3         3         3
         3         3         3         3         3         3         3         3
         3         3         3         3         3         3         3         3
         3         3         3         3         3         3         3         3
         3         3         3         3         3         3         3         3
         3         3         3         3         3         3         3         3
         3         3         3         3         3         3         3         3
         3         3         3         3         3         3         3         3
         3         3         3         3         3         3         3         3
         3         3         3         3         3         3         3         3
         3         3         3         3         3         3         3         3
         3         3         3         3         3         3         3         3
         3         3         3         3         3         3         3         3
         3         3         3         3         3         3         3         3
         3         3         3         3         3         3         3         3
         3         3         3         3         3         3         3         3
         3         3         3         3         3         3         3         3
         3         3         3         3         3         3         3         3
         3         3         3         3         3         3         3         3
         3         3         3         3         3         3         3         3
         3         3         3         3         3         3         3         3
         3         3         3         3         3         3         3         3
         3         3         3         3         3         3         3         3
         3         3         3         3         3         3         3         3
         3         3         3         3         3         3         3         3
         3         3         3         3         3         3         3         3
         3         3         3         3         3         3         3         3
         3         3         3         3         3         3         3         3
         3         3         3         3         3         3         3         3
         3         3         3         3         3         3         3         3
         3         3         3         3         3         3         3         3
         3         3         3         3         3         3         3         3
         3         3         3         3         3         3         3         3
         3         3         3         3         3         3         3         3
         3         3         3         3         3         3         3         3
         3         3         3         3         3         3         3         3
         3         3         3         3         3         3         3         3
         3         3         3         3         3         3         3         3
         3         3         3         3         3         3         3         3
         3         3         3         3         3         3         3         3
         3         3         3         3         3         3         3         3
         3         3         3         3         3         3         3         3
         3         3         3         3         3         3         3         3
         3         3         3         3         3         3         3         3
         3         3         3         3         3         3         3         3
         3         3         3         3         3         3         3         3
         3         3         3         3         3         3         3         3
         3         3         3         3         3         3         3         3
         3         3         3         3         3         3         3         3
         3         3         3         3         3         3         3         3
         3         3         3         3         3         3         3         3
         3         3         3         3         3         3         3         3
         3         3         3         3         3         3         3         3
         3         3         3         3         3         3         3         3
         3         3         3         3         3         3         3         3
         3         3         3         3         3         3         3         3
         3         3         3         3         3         3         3         3
         3         3         3         3         3         3         3         3
         3         3         3         3         3         3         3         3
         3         3         3         3         3         3         3         3
         3         3         3         3         3         3         3         3
         3         3         3         3         3         3         3         3
         3         3         3         3         3         3         3         3
         3         3         3         3         3         3         3         3
         3         3         3         3         3         3         3         3
         3         3         3         3         3         3         3         3
         3         3         3         3         3         3         3         3
         3         3         3         3         3         3         3         3
         3         3         3         3         3         3         3         3
         3         3         3         3         3         3         3         3
         3         3         3         3         3         3         3         3
         3         3         3         3         3         3         3         3
         3         3         3         3         3         3         3         3
         3         3         3         3         3         3         3         3
         3         3         3         3         3         3         3         3
         3         3         3         3         3         3         3         3
         3         3         3         3         3         3         3         3
         3         3         3         3         3         3         3         3
         3         3         3         3         3         3         3         3
         3         3         3         3         3         3         3         3
         3         3         3         3         3         3         3         3
         3         3         3         3         3         3         3         3
         3         3         3         3         3         3         3         3
         3         3         3         3         3         3         3         3
         3         3         3         3         3         3         3         3
         3         3         3         3         3         3         3         3
         3         3         3         3         3         3         3         3
         3         3         3         3         3         3         3         3
         3         3         3         3         3         3         3         3
         3         3         3         3         3         3         3         3
         3         3         3         3         3         3         3         3
         3         3         3         3         3         3         3         3
         3         3         3         3         3         3         3         3
         3         3         3         3         3         3         3         3
         3         3         3         3         3         3         3         3
         3         3         3         3         3         3         3         3
         3         3         3         3         3         3         3         3
         3         3         3         3         3         3         3         3
         3         3         3         3         3         3         3         3
         3         3         3         3         3         3         3         3
         3         3         3         3         3         3         3         3
         3         3         3         3         3         3         3         3
         3         3         3         3         3         3         3         3
         3         3         3         3         3         3         3         3
         3         3         3         3         3         3         3         3
         3         3         3         3         3         3         3         3
         3         3         3         3         3         3         3         3
         3         3         3         3         3         3         3         3
         3         3         3         3         3         3         3         3
         3         3         3         3         3         3         3         3
         3         3         3         3         3         3         3         3
         3         3         3         3         3         3         3         3
         3         3         3         3         3         3         3         3
         3         3         3         3         3         3         3         3
         3         3         3         3         3         3         3         3
         3         3         3         3         3         3         3         3
         3         3         3         3         3         3         3         3
         3         3         3         3         3         3         3         3
         3         3         3         3         3         3         3         3
         3         3         3         3         3         3         3         3
         3         3         3         3         3         3         3         3
         3         3         3         3         3         3         3         3
         3         3         3         3         3         3         3         3
         3         3         3         3         3         3         3         3
         3         3         3         3         3         3         3         3
         3         3         3         3         3         3         3         3
         3         3         3         3         3         3         3         3
         3         3         3         3         3         3         3         3
         3         3         3         3         3         3         3         3
         3         3         3         3         3         3         3         3
         3         3         3         3         3         3         3         3
         3         3         3         3         3         3         3         3
         3         3         3         3         3         3         3         3
         3         3         3         3         3         3         3         3
         3         3         3         3         3         3         3         3
         3         3         3         3         3         3         3         3
         3         3         3         3         3         3         3         3
         3         3         3         3         3         3         3         3
         3         3         3         3         3         3         3         3
         3         3         3         3         3         3         3         3
         3         3         3         3         3         3         3         3
         3         3         3         3         3         3         3         3
         3         3         3         3         3         3         3         3
         3         3         3         3         3         3         3         3
         3         3         3         3         3         3         3         3
         3         3         3         3         3         3         3         3
         3         3         3         3         3         3         3         3
         3         3         3         3         3         3         3         3
         3         3         3         3         3         3         3         3
         3         3         3         3         3         3         3         3
         3         3         3         3         3         3         3         3
         3         3         3         3         3         3         3         3
         3         3         3         3         3         3         3         3
         3         3         3         3         3         3         3         3
         3         3         3         3         3         3         3         3
         3         3         3         3         3         3         3         3
         3         3         3         3         3         3         3         3
         3         3         3         3         3         3         3         3
         3         3         3         3         3         3         3         3
         3         3         3         3         3         3         3         3
         3         3         3         3         3         3         3         3
         3         3         3         3         3         3         3         3
         3         3         3         3         3         3         3         3
         3         3         3         3         3         3         3         3
         3         3         3         3         3         3         3         3
         3         3         3         3         3         3         3         3
         3         3         3         3         3         3         3         3
         3         3         3         3         3         3         3         3
         3         3         3         3         3         3         3         3
         3         3         3         3         3         3         3         3
         3         3         3         3         3         3         3         3
         3         3         3         3         3         3         3         3
         3         3         3         3         3         3         3         3
         3         3         3         3         3         3         3         3
         3         3         3         3         3         3         3         3
         3         3         3         3         3         3         3         3
         3         3         3         3         3         3         3         3
         3         3         3         3         3         3         3         3
         3         3         3         3         3         3         3         3
         3         3         3         3         3         3         3         3
         3         3         3         3         3         3         3         3
         3         3         3         3         3         3         3         3
         3         3         3         3         3         3         3         3
         3         3         3         3         3         3         3         3
         3         3         3         3         3         3         3         3
         3         3         3         3         3         3         3         3
         3         3         3         3         3         3         3         3
         3         3         3         3         3         3         3         3
         3         3         3         3         3         3         3         3
         3         3         3         3         3         3         3         3
         3         3         3         3         3         3         3         3
         3         3         3         3         3         3         3         3
         3         3         3         3         3         3         3         3
         3         3         3         3         3         3         3         3
         3         3         3         3         3         3         3         3
         3         3         3         3         3         3         3         3
         3         3         3         3         3         3         3         3
         3         3         3         3         3         3         3         3
         3         3         3         3         3         3         3         3
         3         3         3         3         3         3         3         3
         3         3         3         3         3         3         3         3
         3         3         3         3         3         3         3         3
         3         3         3         3         3         3         3         3
         3         3         3         3         3         3         3         3
         3         3         3         3         3         3         3         3
         3         3         3         3         3         3         3         3
         3         3         3         3         3         3         3         3
         3         3         3         3         3         3         3         3
         3         3         3         3         3         3         3         3
         3         3         3         3         3         3         3         3
         3         3         3         3         3         3         3         3
         3         3         3         3         3         3         3         3
         3         3         3         3         3         3         3         3
         3         3         3         3         3         3         3         3
         3         3         3         3         3         3         3         3
         3         3         3         3         3         3         3         3
         3         3         3         3         3         3         3         3
         3         3         3         3         3         3         3         3
         3         3         3         3         3         3         3         3
         3         3         3         3         3         3         3         3
         3         3         3         3         3         3         3         3
         3         3         3         3         3         3         3         3
         3         3         3         3         3         3         3         3
         3         3         3         3         3         3         3         3
         3         3         3         3         3         3         3         3
         3         3         3         3         3         3         3         3
         3         3         3         3         3         3         3         3
         3         3         3         3         3         3         3         3
         3         3         3         3         3         3         3         3
         3         3         3         3         3         3         3         3
         3         3         3         3         3         3         3         3
         3         3         3         3         3         3         3         3
         3         3         3         3         3         3         3         3
         3         3         3         3         3         3         3         3
         3         3         3         3         3         3         3         3
         3         3         3         3         3         3         3         3
         3         3         3         3         3         3         3         3
         3         3         3         3         3         3         3         3
         3         3         3         3         3         3         3         3
         3         3         3         3         3         3         3         3
         3         3         3         3         3         3         3         3
         3         3         3         3         3         3         3         3
         3         3         3         3         3         3         3         3
         3         3         3         3         3         3         3         3
         3         3         3         3         3         3         3         3
         3         3         3         3         3         3         3         3
         3         3         3         3         3         3         3         3
         3         3         3         3         3         3         3         3
         3         3         3         3         3         3         3         3
         3         3         3         3         3         3         3         3
         3         3         3         3         3         3         3         3
         3         3         3         3         3         3         3         3
         3         3         3         3         3         3         3         3
         3         3         3         3         3         3         3         3
         3         3         3         3         3         3         3         3
         3         3         3         3         3         3         3         3
         3         3         3         3         3         3         3         3
         3         3         3         3         3         3         3         3
         3         3         3         3         3         3         3         3
         3         3         3         3         3         3         3         3
         3         3         3         3         3         3         3         3
         3         3         3         3         3         3         3         3
         3         3         3         3         3         3         3         3
         3         3         3         3         3         3         3         3
         3         3         3         3         3         3         3         3
         3         3         3         3         3         3         3         3
         3         3         3         3         3         3         3         3
         3         3         3         3         3         3         3         3
         3         3         3         3         3         3         3         3
         3         3         3         3         3         3         3         3
         3         3         3         3         3         3         3         3
         3         3         3         3         3         3         3         3
         3         3         3         3         3         3         3         3
         3         3         3         3         3         3         3         3
         3         3         3         3         3         3         3         3
         3         3         3         3         3         3         3         3
         3         3         3         3         3         3         3         3
         3         3         3         3         3         3         3         3
         3         3         3         3         3         3         3         3
         3         3         3         3         3         3         3         3
         3         3         3         3         3         3         3         3
         3         3         3         3         3         3         3         3
         3         3         3         3         3         3         3         3
         3         3         3         3         3         3         3         3
         3         3         3         3         3         3         3         3
         3         3         3         3         3         3         3         3
         3         3         3         3         3         3         3         3
         3         3         3         3         3         3         3         3
         3         3         3         3         3         3         3         3
         3         3         3         3         3         3         3         3
         3         3         3         3         3         3         3         3
         3         3         3         3         3         3         3         3
         3         3         3         3         3         3         3         3
         3         3         3         3         3         3         3         3
         3         3         3         3         3         3         3         3
         3         3         3         3         3         3         3         3
         3         3         3         3         3         3         3         3
         3         3         3         3         3         3         3         3
         3         3         3         3         3         3         3         3
         3         3         3         3         3         3         3         3
         3         3         3         3         3         3         3         3
         3         3         3         3         3         3         3         3
         3         3         3         3         3         3         3         3
         3         3         3         3         3         3         3         3
         3         3         3         3         3         3         3         3
         3         3         3         3         3         3         3         3
         3         3         3         3         3         3         3         3
         3         3         3         3         3         3         3         3
         3         3         3         3         3         3         3         3
         3         3         3         3         3         3         3         3
         3         3         3         3         3         3         3         3
         3         3         3         3         3         3         3         3
         3         3         3         3         3         3         3         3
         3         3         3         3         3         3         3         3
         3         3         3         3         3         3         3         3
         3         3         3         3         3         3         3         3
         3         3         3         3         3         3         3         3
         3         3         3         3         3         3         3         3
         3         3         3         3         3         3         3         3
         3         3         3         3         3         3         3         3
         3         3         3         3         3         3         3         3
         3         3         3         3         3         3         3         3
         3         3         3         3         3         3         3         3
         3         3         3         3         3         3         3         3
         3         3         3         3         3         3         3         3
         3         3         3         3         3         3         3         3
         3         3         3         3         3         3         3         3
         3         3         3         3         3         3         3         3
         3         3         3         3         3         3         3         3
         3         3         3         3         3         3         3         3
         3         3         3         3         3         3         3         3
         3         3         3         3         3         3         3         3
         3         3         3         3         3         3         3         3
         3         3         3         3         3         3         3         3
         3         3         3         3         3         3         3         3
         3         3         3         3         3         3         3         3
         3         3         3         3         3         3         3         3
         3         3         3         3         3         3         3         3
         3         3         3         3         3         3         3         3
         3         3         3         3         3         3         3         3
         3         3         3         3         3         3         3         3
         3         3         3         3         3         3         3         3
         3         3         3         3         3         3         3         3
         3         3         3         3         3         3         3         3
         3         3         3         3         3         3         3         3
         3         3         3         3         3         3         3         3
         3         3         3         3         3         3         3         3
         3         3         3         3         3         3         3         3
         3         3         3         3         3         3         3         3
         3         3         3         3         3         3         3         3
         3         3         3         3         3         3         3         3
         3         3         3         3         3         3         3         3
         3         3         3         3         3         3         3         3
         3         3         3         3         3         3         3         3
         3         3         3         3         3         3         3         3
         3         3         3         3         3         3         3         3
         3         3         3         3         3         3         3         3
         3         3         3         3         3         3         3         3
         3         3         3         3         3         3         3         3
         3         3         3         3         3         3         3         3
         3         3         3         3         3         3         3         3
         3         3         3         3         3         3         3         3
         3         3         3         3         3         3         3         3
         3         3         3         3         3         3         3         3
         3         3         3         3         3         3         3         3
         3         3         3         3         3         3         3         3
         3         3         3         3         3         3         3         3
         3         3         3         3         3         3         3         3
         3         3         3         3         3         3         3         3
         3         3         3         3         3         3         3         3
         3         3         3         3         3         3         3         3
         3         3         3         3         3         3         3         3
         3         3         3         3         3         3         3         3
         3         3         3         3         3         3         3         3
         3         3         3         3         3         3         3         3
         3         3         3         3         3         3         3         3
         3         3         3         3         3         3         3         3
         3         3         3         3         3         3         3         3
         3         3         3         3         3         3         3         3
         3         3         3         3         3         3         3         3
         3         3         3         3         3         3         3         3
         3         3         3         3         3         3         3         3
         3         3         3         3         3         3         3         3
         3         3         3         3         3         3         3         3
         3         3         3         3         3         3         3         3
         3         3         3         3         3         3         3         3
         3         3         3         3         3         3         3         3
         3         3         3         3         3         3         3         3
         3         3         3         3         3         3         3         3
         3         3         3         3         3         3         3         3
         3         3         3         3         3         3         3         3
         3         3         3         3         3         3         3         3
         3         3         3         3         3         3         3         3
         3         3         3         3         3         3         3         3
         3         3         3         3         3         3         3         3
         3         3         3         3         3         3         3         3
         3         3         3         3         3         3         3         3
         3         3         3         3         3         3         3         3
         3         3         3         3         3         3         3         3
         3         3         3         3         3         3         3         3
         3         3         3         3         3         3         3         3
         3         3         3         3         3         3         3         3
         3         3         3         3         3         3         3         3
         3         3         3         3         3         3         3         3
         3         3         3         3         3         3         3         3
         3         3         3         3         3         3         3         3
         3         3         3         3         3         3         3         3
         3         3         3         3         3         3         3         3
         3         3         3         3         3         3         3         3
         3         3         3         3         3         3         3         3
         3         3         3         3         3         3         3         3
         3         3         3         3         3         3         3         3
         3         3         3         3         3         3         3         3
         3         3         3         3         3         3         3         3
         3         3         3         3         3         3         3         3
         3         3         3         3         3         3         3         3
         3         3         3         3         3         3         3         3
         3         3         3         3         3         3         3         3
         3         3         3         3         3         3         3         3
         3         3         3         3         3         3         3         3
         3         3         3         3         3         3         3         3
         3         3         3         3         3         3         3         3
         3         3         3         3         3         3         3         3
         3         3         3         3         3         3         3         3
         3         3         3         3         3         3         3         3
         3         3         3         3         3         3         3         3
         3         3         3         3         3         3         3         3
         3         3         3         3         3         3         3         3
         3         3         3         3         3         3         3         3
         3         3         3         3         3         3         3         3
         3         3         3         3         3         3         3         3
         3         3         3         3         3         3         3         3
         3         3         3         3         3         3         3         3
         3         3         3         3         3         3         3         3
         3         3         3         3         3         3         3         3
         3         3         3         3         3         3         3         3
         3         3         3         3         3         3         3         3
         3         3         3         3         3         3         3         3
         3         3         3         3         3         3         3         3
         3         3         3         3         3         3         3         3
         3         3         3         3         3         3         3         3
         3         3         3         3         3         3         3         3
         3         3         3         3         3         3         3         3
         3         3         3         3         3         3         3         3
         3         3         3         3         3         3         3         3
         3         3         3         3         3         3         3         3
         3         3         3         3         3         3         3         3
         3         3         3         3         3         3         3         3
         3         3         3         3         3         3         3         3
         3         3         3         3         3         3         3         3
         3         3         3         3         3         3         3         3
         3         3         3         3         3         3         3         3
         3         3         3         3         3         3         3         3
         3         3         3         3         3         3         3         3
         3         3         3         3         3         3         3         3
         3         3         3         3         3         3         3         3
         3         3         3         3         3         3         3         3
         3         3         3         3         3         3         3         3
         3         3         3         3         3         3         3         3
         3         3         3         3         3         3         3         3
         3         3         3         3         3         3         3         3
         3         3         3         3         3         3         3         3
         3         3         3         3         3         3         3         3
         3         3         3         3         3         3         3         3
         3         3         3         3         3         3         3         3
         3         3         3         3         3         3         3         3
         3         3         3         3         3         3         3         3
         3         3         3         3         3         3         3         3
         3         3         3         3         3         3         3         3
         3         3         3         3         3         3         3         3
         3         3         3         3         3         3         3         3
         3         3         3         3         3         3         3         3
         3         3         3         3         3         3         3         3
         3         3         3         3         3         3         3         3
         3         3         3         3         3         3         3         3
         3         3         3         3         3         3         3         3
         3         3         3         3         3         3         3         3
         3         3         3         3         3         3         3         3
         3         3         3         3         3         3         3         3
         3         3         3         3         3         3         3         3
         3         3         3         3         3         3         3         3
         3         3         3         3         3         3         3         3
         3         3         3         3         3         3         3         3
         3         3         3         3         3         3         3         3
         3         3         3         3         3         3         3         3
         3         3         3         3         3         3         3         3
         3         3         3         3         3         3         3         3
         3         3         3         3         3         3         3         3
         3         3         3         3         3         3         3         3
         3         3         3         3         3         3         3         3
         3         3         3         3         3         3         3         3
         3         3         3         3         3         3         3         3
         3         3         3         3         3         3         3         3
         3         3         3         3         3         3         3         3
         3         3         3         3         3         3         3         3
         3         3         3         3         3         3         3         3
         3         3         3         3         3         3         3         3
         3         3         3         3         3         3         3         3
         3         3         3         3         3         3         3         3
         3         3         3         3         3         3         3         3
         3         3         3         3         3         3         3         3
         3         3         3         3         3         3         3         3
         3         3         3         3         3         3         3         3
         3         3         3         3         3         3         3         3
         3         3         3         3         3         3         3         3
         3         3         3         3         3         3         3         3
         3         3         3         3         3         3         3         3
         3         3         3         3         3         3         3         3
         3         3         3         3         3         3         3         3
         3         3         3         3         3         3         3         3
         3         3         3         3         3         3         3         3
         3         3         3         3         3         3         3         3
         3         3         3         3         3         3         3         3
         3         3         3         3         3         3         3         3
         3         3         3         3         3         3         3         3
         3         3         3         3         3         3         3         3
         3         3         3         3         3         3         3         3
         3         3         3         3         3         3         3         3
         3         3         3         3         3         3         3         3
         3         3         3         3         3         3         3         3
         3         3         3         3         3         3         3         3
         3         3         3         3         3         3         3         3
         3         3         3         3         3         3         3         3
         3         3         3         3         3         3         3         3
         3         3         3         3         3         3         3         3
         3         3         3         3         3         3         3         3
         3         3         3         3         3         3         3         3
         3         3         3         3         3         3         3         3
         3         3         3         3         3         3         3         3
         3         3         3         3         3         3         3         3
         3         3         3         3         3         3         3         3
         3         3         3         3         3         3         3         3
         3         3         3         3         3         3         3         3
         3         3         3         3         3         3         3         3
         3         3         3         3         3         3         3         3
         3         3         3         3         3         3         3         3
         3         3         3         3         3         3         3         3
         3         3         3         3         3         3         3         3
         3         3         3         3         3         3         3         3
         3         3         3         3         3         3         3         3
         3         3         3         3         3         3         3         3
         3         3         3         3         3         3         3         3
         3         3         3         3         3         3         3         3
         3         3         3         3         3         3         3         3
         3         3         3         3         3         3         3         3
         3         3         3         3         3         3         3         3
         3         3         3         3         3         3         3         3
         3         3         3         3         3         3         3         3
         3         3         3         3         3         3         3         3
         3         3         3         3         3         3         3         3
         3         3         3         3         3         3         3         3
         3         3         3         3         3         3         3         3
         3         3         3         3         3         3         3         3
         3         3         3         3         3         3         3         3
         3         3         3         3         3         3         3         3
         3         3         3         3         3         3         3         3
         3         3         3         3         3         3         3         3
         3         3         3         3         3         3         3         3
         3         3         3         3         3         3         3         3
         3         3         3         3         3         3         3         3
         3         3         3         3         3         3         3         3
         3         3         3         3         3         3         3         3
         3         3         3         3         3         3         3         3
         3         3         3         3         3         3         3         3
         3         3         3         3         3         3         3         3
         3         3         3         3         3         3         3         3
         3         3         3         3         3         3         3         3
         3         3         3         3         3         3         3         3
         3         3         3         3         3         3         3         3
         3         3         3         3         3         3         3         3
         3         3         3         3         3         3         3         3
         3         3         3         3         3         3         3         3
         3         3         3         3         3         3         3         3
         3         3         3         3         3         3         3         3
         3         3         3         3         3         3         3         3
         3         3         3         3         3         3         3         3
         3         3         3         3         3         3         3         3
         3         3         3         3         3         3         3         3
         3         3         3         3         3         3         3         3
         3         3         3         3         3         3         3         3
         3         3         3         3         3         3         3         3
         3         3         3         3         3         3         3         3
         3         3         3         3         3         3         3         3
         3         3         3         3         3         3         3         3
         3         3         3         3         3         3         3         3
         3         3         3         3         3         3         3         3
         3         3         3         3         3         3         3         3
         3         3         3         3         3         3         3         3
         3         3         3         3         3         3         3         3
         3         3         3         3         3         3         3         3
         3         3         3         3         3         3         3         3
         3         3         3         3         3         3         3         3
         3         3         3         3         3         3         3         3
         3         3         3         3         3         3         3         3
         3         3         3         3         3         3         3         3
         3         3         3         3         3         3         3         3
         3         3         3         3         3         3         3         3
         3         3         3         3         3         3         3         3
         3         3         3         3         3         3         3         3
         3         3         3         3         3         3         3         3
         3         3         3         3         3         3         3         3
         3         3         3         3         3         3         3         3
         3         3         3         3         3         3         3         3
         3         3         3         3         3         3         3         3
         3         3         3         3         3         3         3         3
         3         3         3         3         3         3         3         3
         3         3         3         3         3         3         3         3
         3         3         3         3         3         3         3         3
         3         3         3         3         3         3         3         3
         3         3         3         3         3         3         3         3
         3         3         3         3         3         3         3         3
         3         3         3         3         3         3         3         3
         3         3         3         3         3         3         3         3
         3         3         3         3         3         3         3         3
         3         3         3         3         3         3         3         3
         3         3         3         3         3         3         3         3
         3         3         3         3         3         3         3         3
         3         3         3         3         3         3         3         3
         3         3         3         3         3         3         3         3
         3         3         3         3         3         3         3         3
         3         3         3         3         3         3         3         3
         3         3         3         3         3         3         3         3
         3         3         3         3         3         3         3         3
         3         3         3         3         3         3         3         3
         3         3         3         3         3         3         3         3
         3         3         3         3         3         3         3         3
         3         3         3         3         3         3         3         3
         3         3         3         3         3         3         3         3
         3         3         3         3         3         3         3         3
         3         3         3         3         3         3         3         3
         3         3         3         3         3         3         3         3
         3         3         3         3         3         3         3         3
         3         3         3         3         3         3         3         3
         3         3         3         3         3         3         3         3
         3         3         3         3         3         3         3         3
         3         3         3         3         3         3         3         3
         3         3         3         3         3         3         3         3
         3         3         3         3         3         3         3         3
         3         3         3         3         3         3         3         3
         3         3         3         3         3         3         3         3
         3         3         3         3         3         3         3         3
         3         3         3         3         3         3         3         3
         3         3         3         3         3         3         3         3
         3         3         3         3         3         3         3         3
         3         3         3         3         3         3         3         3
         3         3         3         3         3         3         3         3
         3         3         3         3         3         3         3         3
         3         3         3         3         3         3         3         3
         3         3         3         3         3         3         3         3
         3         3         3         3         3         3         3         3
         3         3         3         3         3         3         3         3
         3         3         3         3         3         3         3         3
         3         3         3         3         3         3         3         3
         3         3         3         3         3         3         3         3
         3         3         3         3         3         3         3         3
         3         3         3         3         3         3         3         3
         3         3         3         3         3         3         3         3
         3         3         3         3         3         3         3         3
         3         3         3         3         3         3         3         3
         3         3         3         3         3         3         3         3
         3         3         3         3         3         3         3         3
         3         3         3         3         3         3         3         3
         3         3         3         3         3         3         3         3
         3         3         3         3         3         3         3         3
         3         3         3         3         3         3         3         3
         3         3         3         3         3         3         3         3
         3         3         3         3         3         3         3         3
         3         3         3         3         3         3         3         3
         3         3         3         3         3         3         3         3
         3         3         3         3         3         3         3         3
         3         3         3         3         3         3         3         3
         3         3         3         3         3         3         3         3
         3         3         3         3         3         3         3         3
         3         3         3         3         3         3         3         3
         3         3         3         3         3         3         3         3
         3         3         3         3         3         3         3         3
         3         3         3         3         3         3         3         3
         3         3         3         3         3         3         3         3
         3         3         3         3         3         3         3         3
         3         3         3         3         3         3         3         3
         3         3         3         3         3         3         3         3
         3         3         3         3         3         3         3         3
         3         3         3         3         3         3         3         3
         3         3         3         3         3         3         3         3
         3         3         3         3         3         3         3         3
         3         3         3         3         3         3         3         3
         3         3         3         3         3         3         3         3
         3         3         3         3         3         3         3         3
         3         3         3         3         3         3         3         3
         3         3         3         3         3         3         3         3
         3         3         3         3         3         3         3         3
         3         3         3         3         3         3         3         3
         3         3         3         3         3         3         3         3
         3         3         3         3         3         3         3         3
         3         3         3         3         3         3         3         3
         3         3         3         3         3         3         3         3
         3         3         3         3         3         3         3         3
         3         3         3         3         3         3         3         3
         3         3         3         3         3         3         3         3
         3         3         3         3         3         3         3         3
         3         3         3         3         3         3         3         3
         3         3         3         3         3         3         3         3
         3         3         3         3         3         3         3         3
         3         3         3         3         3         3         3         3
         3         3         3         3         3         3         3         3
         3         3         3         3         3         3         3         3
         3         3         3         3         3         3         3         3
         3         3         3         3         3         3         3         3
         3         3         3         3         3         3         3         3
         3         3         3         3         3         3         3         3
         3         3         3         3         3         3         3         3
         3         3         3         3         3         3         3         3
         3         3         3         3         3         3         3         3
         3         3         3         3         3         3         3         3
         3         3         3         3         3         3         3         3
         3         3         3         3         3         3         3         3
         3         3         3         3         3         3         3         3
         3         3         3         3         3         3         3         3
         3         3         3         3         3         3         3         3
         3         3         3         3         3         3         3         3
         3         3         3         3         3         3         3         3
         3         3         3         3         3         3         3         3
         3         3         3         3         3         3         3         3
         3         3         3         3         3         3         3         3
         3         3         3         3         3         3         3         3
         3         3         3         3         3         3         3         3
         3         3         3         3         3         3         3         3
         3         3         3         3         3         3         3         3
         3         3         3         3         3         3         3         3
         3         3         3         3         3         3         3         3
         3         3         3         3         3         3         3         3
         3         3         3         3         3         3         3         3
         3         3         3         3         3         3         3         3
         3         3         3         3         3         3         3         3
         3         3         3         3         3         3         3         3
         3         3         3         3         3         3         3         3
         3         3         3         3         3         3         3         3
         3         3         3         3         3         3         3         3
         3         3         3         3         3         3         3         3
         3         3         3         3         3         3         3         3
         3         3         3         3         3         3         3         3
         3         3         3         3         3         3         3         3
         3         3         3         3         3         3         3         3
         3         3         3         3         3         3         3         3
         3         3         3         3         3         3         3         3
         3         3         3         3         3         3         3         3
         3         3         3         3         3         3         3         3
         3         3         3         3         3         3         3         3
         3         3         3         3         3         3         3         3
         3         3         3         3         3         3         3         3
         3         3         3         3         3         3         3         3
         3         3         3         3         3         3         3         3
         3         3         3         3         3         3         3         3
         3         3         3         3         3         3         3         3
         3         3         3         3         3         3         3         3
         3         3         3         3         3         3         3         3
         3         3         3         3         3         3         3         3
         3         3         3         3         3         3         3         3
         3         3         3         3         3         3         3         3
         3         3         3         3         3         3         3         3
         3         3         3         3         3         3         3         3
         3         3         3         3         3         3         3         3
         3         3         3         3         3         3         3         3
         3         3         3         3         3         3         3         3
         3         3         3         3         3         3         3         3
         3         3         3         3         3         3         3         3
         3         3         3         3         3         3         3         3
         3         3         3         3         3         3         3         3
         3         3         3         3         3         3         3         3
         3         3         3         3         3         3         3         3
         3         3         3         3         3         3         3         3
         3         3         3         3         3         3         3         3
         3         3         3         3         3         3         3         3
         3         3         3         3         3         3         3         3
         3         3         3         3         3         3         3         3
         3         3         3         3         3         3         3         3
         3         3         3         3         3         3         3         3
         3         3         3         3         3         3         3         3
         3         3         3         3         3         3         3         3
         3         3         3         3         3         3         3         3
         3         3         3         3         3         3         3         3
         3         3         3         3         3         3         3         3
         3         3         3         3         3         3         3         3
         3         3         3         3         3         3         3         3
         3         3         3         3         3         3         3         3
         3         3         3         3         3         3         3         3
         3         3         3         3         3         3         3         3
         3         3         3         3         3         3         3         3
         3         3         3         3         3         3         3         3
         3         3         3         3         3         3         3         3
         3         3         3         3         3         3         3         3
         3         3         3         3         3         3         3         3
         3         3         3         3         3         3         3         3
         3         3         3         3         3         3         3         3
         3         3         3         3         3         3         3         3
         3         3         3         3         3         3         3         3
         3         3         3         3         3         3         3         3
         3         3         3         3         3         3         3         3
         3         3         3         3         3         3         3         3
         3         3         3         3         3         3         3         3
         3         3         3         3         3         3         3         3
         3         3         3         3         3         3         3         3
         3         3         3         3         3         3         3         3
         3         3         3         3         3         3         3         3
         3         3         3         3         3         3         3         3
         3         3         3         3         3         3         3         3
         3         3         3         3         3         3         3         3
         3         3         3         3         3         3         3         3
         3         3         3         3         3         3         3         3
         3         3         3         3         3         3         3         3
         3         3         3         3         3         3         3         3
         3         3         3         3         3         3         3         3
         3         3         3         3         3         3         3         3
         3         3         3         3         3         3         3         3
         3         3         3         3         3         3         3         3
         3         3         3         3         3         3         3         3
         3         3         3         3         3         3         3         3
         3         3         3         3         3         3         3         3
         3         3         3         3         3         3         3         3
         3         3         3         3         3         3         3         3
         3         3         3         3         3         3         3         3
         3         3         3         3         3         3         3         3
         3         3         3         3         3         3         3         3
         3         3         3         3         3         3         3         3
         3         3         3         3         3         3         3         3
         3         3         3         3         3         3         3         3
         3         3         3         3         3         3         3         3
         3         3         3         3         3         3         3         3
         3         3         3         3         3         3         3         3
         3         3         3         3         3         3         3         3
         3         3         3         3         3         3         3         3
         3         3         3         3         3         3         3         3
         3         3         3         3         3         3         3         3
         3         3         3         3         3         3         3         3
         3         3         3         3         3         3         3         3
         3         3         3         3         3         3         3         3
         3         3         3         3         3         3         3         3
         3         3         3         3         3         3         3         3
         3         3         3         3         3         3         3         3
         3         3         3         3         3         3         3         3
         3         3         3         3         3         3         3         3
         3         3         3         3         3         3         3         3
         3         3         3         3         3         3         3         3
         3         3         3         3         3         3         3         3
         3         3         3         3         3         3         3         3
         3         3         3         3         3         3         3         3
         3         3         3         3         3         3         3         3
         3         3         3         3         3         3         3         3
         3         3         3         3         3         3         3         3
         3         3         3         3         3         3         3         3
         3         3         3         3         3         3         3         3
         3         3         3         3         3         3         3         3
         3         3         3         3         3         3         3         3
         3         3         3         3         3         3         3         3
         3         3         3         3         3         3         3         3
         3         3         3         3         3         3         3         3
         3         3         3         3         3         3         3         3
         3         3         3         3         3         3         3         3
         3         3         3         3         3         3         3         3
         3         3         3         3         3         3         3         3
         3         3         3         3         3         3         3         3
         3         3         3         3         3         3         3         3
         3         3         3         3         3         3         3         3
         3         3         3         3         3         3         3         3
         3         3         3         3         3         3         3         3
         3         3         3         3         3         3         3         3
         3         3         3         3         3         3         3         3
         3         3         3         3         3         3         3         3
         3         3         3         3         3         3         3         3
         3         3         3         3         3         3         3         3
         3         3         3         3         3         3         3         3
         3         3         3         3         3         3         3         3
         3         3         3         3         3         3         3         3
         3         3         3         3         3         3         3         3
         3         3         3         3         3         3         3         3
         3         3         3         3         3         3         3         3
         3         3         3         3         3         3         3         3
         3         3         3         3         3         3         3         3
         3         3         3         3         3         3         3         3
         3         3         3         3         3         3         3         3
         3         3         3         3         3         3         3         3
         3         3         3         3         3         3         3         3
         3         3         3         3         3         3         3         3
         3         3         3         3         3         3         3         3
         3         3         3         3         3         3         3         3
         3         3         3         3         3         3         3         3
         3         3         3         3         3         3         3         3
         3         3         3         3         3         3         3         3
         3         3         3         3         3         3         3         3
         3         3         3         3         3         3         3         3
         3         3         3         3         3         3         3         3
         3         3         3         3         3         3         3         3
         3         3         3         3         3         3         3         3
         3         3         3         3         3         3         3         3
         3         3         3         3         3         3         3         3
         3         3         3         3         3         3         3         3
         3         3         3         3         3         3         3         3
         3         3         3         3         3         3         3         3
         3         3         3         3         3         3         3         3
         3         3         3         3         3         3         3         3
         3         3         3         3         3         3         3         3
         3         3         3         3         3         3         3         3
         3         3         3         3         3         3         3         3
         3         3         3         3         3         3         3         3
         3         3         3         3         3         3         3         3
         3         3         3         3         3         3         3         3
         3         3         3         3         3         3         3         3
         3         3         3         3         3         3         3         3
         3         3         3         3         3         3         3         3
         3         3         3         3         3         3         3         3
         3         3         3         3         3         3         3         3
         3         3         3         3         3         3         3         3
         3         3         3         3         3         3         3         3
         3         3         3         3         3         3         3         3
         3         3         3         3         3         3         3         3
         3         3         3         3         3         3         3         3
         3         3         3         3         3         3         3         3
         3         3         3         3         3         3         3         3
         3         3         3         3         3         3         3         3
         3         3         3         3         3         3         3         3
         3         3         3         3         3         3         3         3
         3         3         3         3         3         3         3         3
         3         3         3         3         3         3         3         3
         3         3         3         3         3         3         3         3
         3         3         3         3         3         3         3         3
         3         3         3         3         3         3         3         3
         3         3         3         3         3         3         3         3
         3         3         3         3         3         3         3         3
         3         3         3         3         3         3         3         3
         3         3         3         3         3         3         3         3
         3         3         3         3         3         3         3         3
         3         3         3         3         3         3         3         3
         3         3         3         3         3         3         3         3
         3         3         3         3         3         3         3         3
         3         3         3         3         3         3         3         3
         3         3         3         3         3         3         3         3
         3         3         3         3         3         3         3         3
         3         3         3         3         3         3         3         3
         3         3         3         3         3         3         3         3
         3         3         3         3         3         3         3         3
         3         3         3         3         3         3         3         3
         3         3         3         3         3         3         3         3
         3         3         3         3         3         3         3         3
         3         3         3         3         3         3         3         3
         3         3         3         3         3         3         3         3
         3         3         3         3         3         3         3         3
         3         3         3         3         3         3         3         3
         3         3         3         3         3         3         3         3
         3         3         3         3         3         3         3         3
         3         3         3         3         3         3         3         3
         3         3         3         3         3         3         3         3
         3         3         3         3         3         3         3         3
         3         3         3         3         3         3         3         3
         3         3         3         3         3         3         3         3
         3         3         3         3         3         3         3         3
         3         3         3         3         3         3         3         3
         3         3         3         3         3         3         3         3
         3         3         3         3         3         3         3         3
         3         3         3         3         3         3         3         3
         3         3         3         3         3         3         3         3
         3         3         3         3         3         3         3         3
         3         3         3         3         3         3         3         3
         3         3         3         3         3         3         3         3
         3         3         3         3         3         3         3         3
         3         3         3         3         3         3         3         3
         3         3         3         3         3         3         3         3
         3         3         3         3         3         3         3         3
         3         3         3         3         3         3         3         3
         3         3         3         3         3         3         3         3
         3         3         3         3         3         3         3         3
         3         3         3         3         3         3         3         3
         3         3         3         3         3         3         3         3
         3         3         3         3         3         3         3         3
         3         3         3         3         3         3         3         3
         3         3         3         3         3         3         3         3
         3         3         3         3         3         3         3         3
         3         3         3         3         3         3         3         3
         3         3         3         3         3         3         3         3
         3         3         3         3         3         3         3         3
         3         3         3         3         3         3         3         3
         3         3         3         3         3         3         3         3
         3         3         3         3         3         3         3         3
         3         3         3         3         3         3         3         3
         3         3         3         3         3         3         3         3
         3         3         3         3         3         3         3         3
         3         3         3         3         3         3         3         3
         3         3         3         3         3         3         3         3
         3         3         3         3         3         3         3         3
         3         3         3         3         3         3         3         3
         3         3         3         3         3         3         3         3
         3         3         3         3         3         3         3         3
         3         3         3         3         3         3         3         3
         3         3         3         3         3         3         3         3
         3         3         3         3         3         3         3         3
         3         3         3         3         3         3         3         3
         3         3         3         3         3         3         3         3
         3         3         3         3         3         3         3         3
         3         3         3         3         3         3         3         3
         3         3         3         3         3         3         3         3
         3         3         3         3         3         3         3         3
         3         3         3         3         3         3         3         3
         3         3         3         3         3         3         3         3
         3         3         3         3         3         3         3         3
         3         3         3         3         3         3         3         3
         3         3         3         3         3         3         3         3
         3         3         3         3         3         3         3         3
         3         3         3         3         3         3         3         3
         3         3         3         3         3         3         3         3
         3         3         3         3         3         3         3         3
         3         3         3         3         3         3         3         3
         3         3         3         3         3         3         3         3
         3         3         3         3         3         3         3         3
         3         3         3         3         3         3         3         3
         3         3         3         3         3         3         3         3
         3         3         3         3         3         3         3         3
         3         3         3         3         3         3         3         3
         3         3         3         3         3         3         3         3
         3         3         3         3         3         3         3         3
         3         3         3         3         3         3         3         3
         3         3         3         3         3         3         3         3
         3         3         3         3         3         3         3         3
         3         3         3         3         3         3         3         3
         3         3         3         3         3         3         3         3
         3         3         3         3         3         3         3         3
         3         3         3         3         3         3         3         3
         3         3         3         3         3         3         3         3
         3         3         3         3         3         3         3         3
         3         3         3         3         3         3         3         3
         3         3         3         3         3         3         3         3
         3         3         3         3         3         3         3         3
         3         3         3         3         3         3         3         3
         3         3         3         3         3         3         3         3
         3         3         3         3         3         3         3         3
         3         3         3         3         3         3         3         3
         3         3         3         3         3         3         3         3
         3         3         3         3         3         3         3         3
         3         3         3         3         3         3         3         3
         3         3         3         3         3         3         3         3
         3         3         3         3         3         3         3         3
         3         3         3         3         3         3         3         3
         3         3         3         3         3         3         3         3
         3         3         3         3         3         3         3         3
         3         3         3         3         3         3         3         3
         3         3         3         3         3         3         3         3
         3         3         3         3         3         3         3         3
         3         3         3         3         3         3         3         3
         3         3         3         3         3         3         3         3
         3         3         3         3         3         3         3         3
         3         3         3         3         3         3         3         3
         3         3         3         3         3         3         3         3
         3         3         3         3         3         3         3         3
         3         3         3         3         3         3         3         3
         3         3         3         3         3         3         3         3
         3         3         3         3         3         3         3         3
         3         3         3         3         3         3         3         3
         3         3         3         3         3         3         3         3
         3         3         3         3         3         3         3         3
         3         3         3         3         3         3         3         3
         3         3         3         3         3         3         3         3
         3         3         3         3         3         3         3         3
         3         3         3         3         3         3         3         3
         3         3         3         3         3         3         3         3
         3         3         3         3         3         3         3         3
         3         3         3         3         3         3         3         3
         3         3         3         3         3         3         3         3
         3         3         3         3         3         3         3         3
         3         3         3         3         3         3         3         3
         3         3         3         3         3         3         3         3
         3         3         3         3         3         3         3         3
         3         3         3         3         3         3         3         3
         3         3         3         3         3         3         3         3
         3         3         3         3         3         3         3         3
         3         3         3         3         3         3         3         3
         3         3         3         3         3         3         3         3
         3         3         3         3         3         3         3         3
         3         3         3         3         3         3         3         3
         3         3         3         3         3         3         3         3
         3         3         3         3         3         3         3         3
         3         3         3         3         3         3         3         3
         3         3         3         3         3         3         3         3
         3         3         3         3         3         3         3         3
         3         3         3         3         3         3         3         3
         3         3         3         3         3         3         3         3
         3         3         3         3         3         3         3         3
         3         3         3         3         3         3         3         3
         3         3         3         3         3         3         3         3
         3         3         3         3         3         3         3         3
         3         3         3         3         3         3         3         3
         3         3         3         3         3         3         3         3
         3         3         3         3         3         3         3         3
         3         3         3         3         3         3         3         3
         3         3         3         3         3         3         3         3
         3         3         3         3         3         3         3         3
         3         3         3         3         3         3         3         3
         3         3         3         3         3         3         3         3
         3         3         3         3         3         3         3         3
         3         3         3         3         3         3         3         3
         3         3         3         3         3         3         3         3
         3         3         3         3         3         3         3         3
         3         3         3         3         3         3         3         3
         3         3         3         3         3         3         3         3
         3         3         3         3         3         3         3         3
         3         3         3         3         3         3         3         3
         3         3         3         3         3         3         3         3
         3         3         3         3         3         3         3         3
         3         3         3         3         3         3         3         3
         3         3         3         3         3         3         3         3
         3         3         3         3         3         3         3         3
         3         3         3         3         3         3         3         3
         3         3         3         3         3         3         3         3
         3         3         3         3         3         3         3         3
         3         3         3         3         3         3         3         3
         3         3         3         3         3         3         3         3
         3         3         3         3         3         3         3         3
         3         3         3         3         3         3         3         3
         3         3         3         3         3         3         3         3
         3         3         3         3         3         3         3         3
         3         3         3         3         3         3         3         3
         3         3         3         3         3         3         3         3
         3         3         3         3         3         3         3         3
         3         3         3         3         3         3         3         3
         3         3         3         3         3         3         3         3
         3         3         3         3         3         3         3         3
         3         3         3         3         3         3         3         3
         3         3         3         3         3         3         3         3
         3         3         3         3         3         3         3         3
         3         3         3         3         3         3         3         3
         3         3         3         3         3         3         3         3
         3         3         3         3         3         3         3         3
         3         3         3         3         3         3         3         3
         3         3         3         3         3         3         3         3
         3         3         3         3         3         3         3         3
         3         3         3         3         3         3         3         3
         3         3         3         3         3         3         3         3
         3         3         3         3         3         3         3         3
         3         3         3         3         3         3         3         3
         3         3         3         3         3         3         3         3
         3         3         3         3         3         3         3         3
         3         3         3         3         3         3         3         3
         3         3         3         3         3         3         3         3
         3         3         3         3         3         3         3         3
         3         3         3         3         3         3         3         3
         3         3         3         3         3         3         3         3
         3         3         3         3         3         3         3         3
         3         3         3         3         3         3         3         3
         3         3         3         3         3         3         3         3
         3         3         3         3         3         3         3         3
         3         3         3         3         3         3         3         3
         3         3         3         3         3         3         3         3
         3         3         3         3         3         3         3         3
         3         3         3         3         3         3         3         3
         3         3         3         3         3         3         3         3
         3         3         3         3         3         3         3         3
         3         3         3         3         3         3         3         3
         3         3         3         3         3         3         3         3
         3         3         3         3         3         3         3         3
         3         3         3         3         3         3         3         3
         3         3         3         3         3         3         3         3
         3         3         3         3         3         3         3         3
         3         3         3         3         3         3         3         3
         3         3         3         3         3         3         3         3
         3         3         3         3         3         3         3         3
         3         3         3         3         3         3         3         3
         3         3         3         3         3         3         3         3
         3         3         3         3         3         3         3         3
         3         3         3         3         3         3         3         3
         3         3         3         3         3         3         3         3
         3         3         3         3         3         3         3         3
         3         3         3         3         3         3         3         3
         3         3         3         3         3         3         3         3
         3         3         3         3         3         3         3         3
         3         3         3         3         3         3         3         3
         3         3         3         3         3         3         3         3
         3         3         3         3         3         3         3         3
         3         3         3         3         3         3         3         3
         3         3         3         3         3         3         3         3
         3         3         3         3         3         3         3         3
         3         3         3         3         3         3         3         3
         3         3         3         3         3         3         3         3
         3         3         3         3         3         3         3         3
         3         3         3         3         3         3         3         3
         3         3         3         3         3         3         3         3
         3         3         3         3         3         3         3         3
         3         3         3         3         3         3         3         3
         3         3         3         3         3         3         3         3
         3         3         3         3         3         3         3         3
         3         3         3         3         3         3         3         3
         3         3         3         3         3         3         3         3
         3         3         3         3         3         3         3         3
         3         3         3         3         3         3         3         3
         3         3         3         3         3         3         3         3
         3         3         3         3         3         3         3         3
         3         3         3         3         3         3         3         3
         3         3         3         3         3         3         3         3
         3         3         3         3         3         3         3         3
         3         3         3         3         3         3         3         3
         3         3         3         3         3         3         3         3
         3         3         3         3         3         3         3         3
         3         3         3         3         3         3         3         3
         3         3         3         3         3         3         3         3
         3         3         3         3         3         3         3         3
         3         3         3         3         3         3         3         3
         3         3         3         3         3         3         3         3
         3         3         3         3         3         3         3         3
         3         3         3         3         3         3         3         3
         3         3         3         3         3         3         3         3
         3         3         3         3         3         3         3         3
         3         3         3         3         3         3         3         3
         3         3         3         3         3         3         3         3
         3         3         3         3         3         3         3         3
         3         3         3         3         3         3         3         3
         3         3         3         3         3         3         3         3
         3         3         3         3         3         3         3         3
         3         3         3         3         3         3         3         3
         3         3         3         3         3         3         3         3
         3         3         3         3         3         3         3         3
         3         3         3         3         3         3         3         3
         3         3         3         3         3         3         3         3
         3         3         3         3         3         3         3         3
         3         3         3         3         3         3         3         3
         3         3         3         3         3         3         3         3
         3         3         3         3         3         3         3         3
         3         3         3         3         3         3         3         3
         3         3         3         3         3         3         3         3
         3         3         3         3         3         3         3         3
         3         3         3         3         3         3         3         3
         3         3         3         3         3         3         3         3
         3         3         3         3         3         3         3         3
         3         3         3         3         3         3         3         3
         3         3         3         3         3         3         3         3
         3         3         3         3         3         3         3         3
         3         3         3         3         3         3         3         3
         3         3         3         3         3         3         3         3
         3         3         3         3         3         3         3         3
         3         3         3         3         3         3         3         3
         3         3         3         3         3         3         3         3
         3         3         3         3         3         3         3         3
         3         3         3         3         3         3         3         3
         3         3         3         3         3         3         3         3
         3         3         3         3         3         3         3         3
         3         3         3         3         3         3         3         3
         3         3         3         3         3         3         3         3
         3         3         3         3         3         3         3         3
         3         3         3         3         3         3         3         3
         3         3         3         3         3         3         3         3
         3         3         3         3         3         3         3         3
         3         3         3         3         3         3         3         3
         3         3         3         3         3         3         3         3
         3         3         3         3         3         3         3         3
         3         3         3         3         3         3         3         3
         3         3         3         3         3         3         3         3
         3         3         3         3         3         3         3         3
         3         3         3         3         3         3         3         3
         3         3         3         3         3         3         3         3
         3         3         3         3         3         3         3         3
         3         3         3         3         3         3         3         3
         3         3         3         3         3         3         3         3
         3         3         3         3         3         3         3         3
         3         3         3         3         3         3         3         3
         3         3         3         3         3         3         3         3
         3         3         3         3         3         3         3         3
         3         3         3         3         3         3         3         3
         3         3         3         3         3         3         3         3
         3         3         3         3         3         3         3         3
         3         3         3         3         3         3         3         3
         3         3         3         3         3         3         3         3
         3         3         3         3         3         3         3         3
         3         3         3         3         3         3         3         3
         3         3         3         3         3         3         3         3
         3         3         3         3         3         3         3         3
         3         3         3         3         3         3         3         3
         3         3         3         3         3         3         3         3
         3         3         3         3         3         3         3         3
         3         3         3         3         3         3         3         3
         3         3         3         3         3         3         3         3
         3         3         3         3         3         3         3         3
         3         3         3         3         3         3         3         3
         3         3         3         3         3         3         3         3
         3         3         3         3         3         3         3         3
         3         3         3         3         3         3         3         3
         3         3         3         3         3         3         3         3
         3         3         3         3         3         3         3         3
         3         3         3         3         3         3         3         3
         3         3         3         3         3         3         3         3
         3         3         3         3         3         3         3         3
         3         3         3         3         3         3         3         3
         3         3         3         3         3         3         3         3
         3         3         3         3         3         3         3         3
         3         3         3         3         3         3         3         3
         3         3         3         3         3         3         3         3
         3         3         3         3         3         3         3         3
         3         3         3         3         3         3         3         3
         3         3         3         3         3         3         3         3
         3         3         3         3         3         3         3         3
         3         3         3         3         3         3         3         3
         3         3         3         3         3         3         3         3
         3         3         3         3         3         3         3         3
         3         3         3         3         3         3         3         3
         3         3         3         3         3         3         3         3
         3         3         3         3         3         3         3         3
         3         3         3         3         3         3         3         3
         3         3         3         3         3         3         3         3
         3         3         3         3         3         3         3         3
         3         3         3         3         3         3         3         3
         3         3         3         3         3         3         3         3
         3         3         3         3         3         3         3         3
         3         3         3         3         3         3         3         3
         3         3         3         3         3         3         3         3
         3         3         3         3         3         3         3         3
         3         3         3         3         3         3         3         3
         3         3         3         3         3         3         3         3
         3         3         3         3         3         3         3         3
         3         3         3         3         3         3         3         3
         3         3         3         3         3         3         3         3
         3         3         3         3         3         3         3         3
         3         3         3         3         3         3         3         3
         3         3         3         3         3         3         3         3
         3         3         3         3         3         3         3         3
         3         3         3         3         3         3         3         3
         3         3         3         3         3         3         3         3
         3         3         3         3         3         3         3         3
         3         3         3         3         3         3         3         3
         3         3         3         3         3         3         3         3
         3         3         3         3         3         3         3         3
         3         3         3         3         3         3         3         3
         3         3         3         3         3         3         3         3
         3         3         3         3         3         3         3         3
         3         3         3         3         3         3         3         3
         3         3         3         3         3         3         3         3
         3         3         3         3         3         3         3         3
         3         3         3         3         3         3         3         3
         3         3         3         3         3         3         3         3
         3         3         3         3         3         3         3         3
         3         3         3         3         3         3         3         3
         3         3         3         3         3         3         3         3
         3         3         3         3         3         3         3         3
         3         3         3         3         3         3         3         3
         3         3         3         3         3         3         3         3
         3         3         3         3         3         3         3         3
         3         3         3         3         3         3         3         3
         3         3         3         3         3         3         3         3
         3         3         3         3         3         3         3         3
         3         3         3         3         3         3         3         3
         3         3         3         3         3         3         3         3
         3         3         3         3         3         3         3         3
         3         3         3         3         3         3         3         3
         3         3         3         3         3         3         3         3
         3         3         3         3         3         3         3         3
         3         3         3         3         3         3         3         3
         3         3         3         3         3         3         3         3
         3         3         3         3         3         3         3         3
         3         3         3         3         3         3         3         3
         3         3         3         3         3         3         3         3
         3         3         3         3         3         3         3         3
         3         3         3         3         3         3         3         3
         3         3         3         3         3         3         3         3
         3         3         3         3         3         3         3         3
         3         3         3         3         3         3         3         3
         3         3         3         3         3         3         3         3
         3         3         3         3         3         3         3         3
         3         3         3         3         3         3         3         3
         3         3         3         3         3         3         3         3
         3         3         3         3         3         3         3         3
         3         3         3         3         3         3         3         3
         3         3         3         3         3         3         3         3
         3         3         3         3         3         3         3         3
         3         3         3         3         3         3         3         3
         3         3         3         3         3         3         3         3
         3         3         3         3         3         3         3         3
         3         3         3         3         3         3         3         3
         3         3         3         3         3         3         3         3
         3         3         3         3         3         3         3         3
         3         3         3         3         3         3         3         3
         3         3         3         3         3         3         3         3
         3         3         3         3         3         3         3         3
         3         3         3         3         3         3         3         3
         3         3         3         3         3         3         3         3
         3         3         3         3         3         3         3         3
         3         3         3         3         3         3         3         3
         3         3         3         3         3         3         3         3
         3         3         3         3         3         3         3         3
         3         3         3         3         3         3         3         3
         3         3         3         3         3         3         3         3
         3         3         3         3         3         3         3         3
         3         3         3         3         3         3         3         3
         3         3         3         3         3         3         3         3
         3         3         3         3         3         3         3         3
         3         3         3         3         3         3         3         3
         3         3         3         3         3         3         3         3
         3         3         3         3         3         3         3         3
         3         3         3         3         3         3         3         3
         3         3         3         3         3         3         3         3
         3         3         3         3         3         3         3         3
         3         3         3         3         3         3         3         3
         3         3         3         3         3         3         3         3
         3         3         3         3         3         3         3         3
         3         3         3         3         3         3         3         3
         3         3         3         3         3         3         3         3
         3         3         3         3         3         3         3         3
         3         3         3         3         3         3         3         3
         3         3         3         3         3         3         3         3
         3         3         3         3         3         3         3         3
         3         3         3         3         3         3         3         3
         3         3         3         3         3         3         3         3
         3         3         3         3         3         3         3         3
         3         3         3         3         3         3         3         3
         3         3         3         3         3         3         3         3
         3         3         3         3         3         3         3         3
         3         3         3         3         3         3         3         3
         3         3         3         3         3         3         3         3
         3         3         3         3         3         3         3         3
         3         3         3         3         3         3         3         3
         3         3         3         3         3         3         3         3
         3         3         3         3         3         3         3         3
         3         3         3         3         3         3         3         3
         3         3         3         3         3         3         3         3
         3         3         3         3         3         3         3         3
         3         3         3         3         3         3         3         3
         3         3         3         3         3         3         3         3
         3         3         3         3         3         3         3         3
         3         3         3         3         3         3         3         3
         3         3         3         3         3         3         3         3
         3         3         3         3         3         3         3         3
         3         3         3         3         3         3         3         3
         3         3         3         3         3         3         3         3
         3         3         3         3         3         3         3         3
         3         3         3         3         3         3         3         3
         3         3         3         3         3         3         3         3
         3         3         3         3         3         3         3         3
         3         3         3         3         3         3         3         3
         3         3         3         3         3         3         3         3
         3         3         3         3         3         3         3         3
         3         3         3         3         3         3         3         3
         3         3         3         3         3         3         3         3
         3         3         3         3         3         3         3         3
         3         3         3         3         3         3         3         3
         3         3         3         3         3         3         3         3
         3         3         3         3         3         3         3         3
         3         3         3         3         3         3         3         3
         3         3         3         3         3         3         3         3
         3         3         3         3         3         3         3         3
         3         3         3         3         3         3         3         3
         3         3         3         3         3         3         3         3
         3         3         3         3         3         3         3         3
         3         3         3         3         3         3         3         3
         3         3         3         3         3         3         3         3
         3         3         3         3         3         3         3         3
         3         3         3         3         3         3         3         3
         3         3         3         3         3         3         3         3
         3         3         3         3         3         3         3         3
         3         3         3         3         3         3         3         3
         3         3         3         3         3         3         3         3
         3         3         3         3         3         3         3         3
         3         3         3         3         3         3         3         3
         3         3         3         3         3         3         3         3
         3         3         3         3         3         3         3         3
         3         3         3         3         3         3         3         3
         3         3         3         3         3         3         3         3
         3         3         3         3         3         3         3         3
         3         3         3         3         3         3         3         3
         3         3         3         3         3         3         3         3
         3         3         3         3         3         3         3         3
         3         3         3         3         3         3         3         3
         3         3         3         3         3         3         3         3
         3         3         3         3         3         3         3         3
         3         3         3         3         3         3         3         3
         3         3         3         3         3         3         3         3
         3         3         3         3         3         3         3         3
         3         3         3         3         3         3         3         3
         3         3         3         3         3         3         3         3
         3         3         3         3

         0         0 !NUMLP NUMLPH

         0 !NCRTERM: cross-terms

