* GENERATED BY CHARMM-GUI (HTTP://WWW.CHARMM-GUI.ORG) V3.1 ON OCT, 03. 2020. JOB
* GENERATES ION CONFORMATION USING MONTE-CARLO SIMULATION
*  DATE:    10/ 3/20     19:23:29      CREATED BY USER: apache
*
        30  EXT
         1         1  CLA       CLA            14.0180183000      -32.8426523000       25.5312234000  CLA       1              -1.0000000000
         2         2  CLA       CLA            -1.2028990200        3.2027268500       41.3007348000  CLA       2              -1.0000000000
         3         3  CLA       CLA            22.2302336000      -28.5532103000      -25.6245447000  CLA       3              -1.0000000000
         4         4  CLA       CLA           -14.9509789000       28.1169487000      -22.9230820000  CLA       4              -1.0000000000
         5         5  CLA       CLA            20.7222173000        3.8847349600       29.4571241000  CLA       5              -1.0000000000
         6         6  CLA       CLA            -5.1747799300       36.6096527000       31.5565103000  CLA       6              -1.0000000000
         7         7  CLA       CLA             6.4221163300      -16.8631680000      -24.7171213000  CLA       7              -1.0000000000
         8         8  CLA       CLA            16.8589766000      -29.6941033000      -27.2784068000  CLA       8              -1.0000000000
         9         9  CLA       CLA            29.1160960000      -25.3349927000       43.1525622000  CLA       9              -1.0000000000
        10        10  CLA       CLA           -32.1630758000       31.7468339000      -22.6715392000  CLA       10             -1.0000000000
        11        11  CLA       CLA           -16.5204680000       -2.6735969400       22.4170444000  CLA       11             -1.0000000000
        12        12  CLA       CLA             3.0391582800      -39.2489094000      -49.6692690000  CLA       12             -1.0000000000
        13        13  CLA       CLA            12.5367619000      -30.0368038000      -36.0012981000  CLA       13             -1.0000000000
        14        14  CLA       CLA             5.9097233400       16.9284688000      -24.7741841000  CLA       14             -1.0000000000
        15        15  CLA       CLA           -23.4285259000       -4.5802911600      -41.3053868000  CLA       15             -1.0000000000
        16        16  CLA       CLA           -16.6008407000      -11.6360172000       29.1482119000  CLA       16             -1.0000000000
        17        17  CLA       CLA            22.4024480000      -15.4293526000       39.6163960000  CLA       17             -1.0000000000
        18        18  CLA       CLA            17.1097675000       -6.4248960200      -38.3517635000  CLA       18             -1.0000000000
        19        19  CLA       CLA            21.0573951000        7.7578788400      -36.9172022000  CLA       19             -1.0000000000
        20        20  CLA       CLA             9.9842886300      -20.6118036000       21.0079317000  CLA       20             -1.0000000000
        21        21  CLA       CLA            25.2754317000       24.2622720000       40.0993966000  CLA       21             -1.0000000000
        22        22  CLA       CLA            16.8362701000      -26.7641809000       37.4459958000  CLA       22             -1.0000000000
        23        23  CLA       CLA            -6.0486404100       14.7004554000       22.5192647000  CLA       23             -1.0000000000
        24        24  CLA       CLA            27.2957868000      -28.0224314000      -40.1219106000  CLA       24             -1.0000000000
        25        25  CLA       CLA           -29.7770588000       21.2620900000      -30.0055185000  CLA       25             -1.0000000000
        26        26  CLA       CLA           -24.9665574000      -15.2523840000      -40.5956421000  CLA       26             -1.0000000000
        27        27  CLA       CLA           -18.5129912000        9.2011686500       42.6923817000  CLA       27             -1.0000000000
        28        28  CLA       CLA           -17.0426575000      -29.7811710000       25.0781579000  CLA       28             -1.0000000000
        29        29  CLA       CLA            20.7266380000       13.1574627000       44.6635260000  CLA       29             -1.0000000000
        30        30  CLA       CLA            10.4903011000        2.7533207400       24.4011630000  CLA       30             -1.0000000000
