* GENERATED BY CHARMM-GUI (HTTP://WWW.CHARMM-GUI.ORG) V3.1 ON OCT, 03. 2020. JOB
* GENERATES ION CONFORMATION USING MONTE-CARLO SIMULATION
*  DATE:    10/ 3/20     19:23:29      CREATED BY USER: apache
*
        76  EXT
         1         1  SOD       SOD            10.1614976000      -26.9620730000       48.2603038000  SOD       1               1.0000000000
         2         2  SOD       SOD            11.9579007000       -1.5023377700      -21.7734361000  SOD       2               1.0000000000
         3         3  SOD       SOD            17.6652051000        2.4431564300       46.2159822000  SOD       3               1.0000000000
         4         4  SOD       SOD            18.3599289000       -3.2457401200       27.7932544000  SOD       4               1.0000000000
         5         5  SOD       SOD           -13.8204273000      -13.2550940000       29.1374015000  SOD       5               1.0000000000
         6         6  SOD       SOD           -25.3505912000       18.6887818000      -31.9338366000  SOD       6               1.0000000000
         7         7  SOD       SOD           -35.8149541000      -34.9124743000      -25.1877813000  SOD       7               1.0000000000
         8         8  SOD       SOD           -15.1569421000      -31.3646388000       20.6215920000  SOD       8               1.0000000000
         9         9  SOD       SOD            30.8607142000       34.6653662000       26.0132922000  SOD       9               1.0000000000
        10        10  SOD       SOD           -23.2851297000        7.6557010300       44.6433452000  SOD       10              1.0000000000
        11        11  SOD       SOD           -15.1981851000       -7.9197079200      -37.9287028000  SOD       11              1.0000000000
        12        12  SOD       SOD            23.3583157000      -37.0986079000       25.9250529000  SOD       12              1.0000000000
        13        13  SOD       SOD             7.0507601400      -32.3284749000       45.6607637000  SOD       13              1.0000000000
        14        14  SOD       SOD            23.3412080000       -1.1022006800       24.2191790000  SOD       14              1.0000000000
        15        15  SOD       SOD            24.2801900000        2.0867620200      -41.7549819000  SOD       15              1.0000000000
        16        16  SOD       SOD            -5.7828084000       31.7214451000       31.3926500000  SOD       16              1.0000000000
        17        17  SOD       SOD            37.0635102000       30.9547404000      -48.1336869000  SOD       17              1.0000000000
        18        18  SOD       SOD            31.9340387000      -10.0519465000       35.4009044000  SOD       18              1.0000000000
        19        19  SOD       SOD           -13.1097332000      -33.9898910000       37.1532099000  SOD       19              1.0000000000
        20        20  SOD       SOD            30.2356297000       28.8229929000      -22.9240686000  SOD       20              1.0000000000
        21        21  SOD       SOD            27.6376796000        6.7523710600      -37.8445728000  SOD       21              1.0000000000
        22        22  SOD       SOD             1.1239076600        4.9039793800       26.8771364000  SOD       22              1.0000000000
        23        23  SOD       SOD            -7.2529045000       32.2384700000       40.4694373000  SOD       23              1.0000000000
        24        24  SOD       SOD            39.3909350000       -1.9869990200      -21.6479297000  SOD       24              1.0000000000
        25        25  SOD       SOD             6.4392367000        0.4393442220       41.6771079000  SOD       25              1.0000000000
        26        26  SOD       SOD           -28.6987859000       36.2666197000      -48.9797941000  SOD       26              1.0000000000
        27        27  SOD       SOD            30.6185598000       29.1271679000       40.6852593000  SOD       27              1.0000000000
        28        28  SOD       SOD            26.6941073000       14.3572330000       39.3182796000  SOD       28              1.0000000000
        29        29  SOD       SOD           -14.9233716000      -27.2476870000       27.7841673000  SOD       29              1.0000000000
        30        30  SOD       SOD            -5.3443400000       16.7436654000       41.2457017000  SOD       30              1.0000000000
        31        31  SOD       SOD           -34.5611282000        6.4876144200       29.4012211000  SOD       31              1.0000000000
        32        32  SOD       SOD            33.2774647000      -12.6631935000      -26.2434732000  SOD       32              1.0000000000
        33        33  SOD       SOD           -18.1388473000       30.7294605000       33.6436881000  SOD       33              1.0000000000
        34        34  SOD       SOD           -13.1984991000        5.8021110900       36.5252401000  SOD       34              1.0000000000
        35        35  SOD       SOD           -23.4023207000      -24.7058636000       30.0679821000  SOD       35              1.0000000000
        36        36  SOD       SOD            23.9199489000      -26.5013414000      -43.5765343000  SOD       36              1.0000000000
        37        37  SOD       SOD            19.2484935000      -21.2559729000      -24.5537349000  SOD       37              1.0000000000
        38        38  SOD       SOD            -6.1381496300      -34.2000069000       47.6046188000  SOD       38              1.0000000000
        39        39  SOD       SOD            36.6143634000       -3.0987018100      -43.6174248000  SOD       39              1.0000000000
        40        40  SOD       SOD           -13.1080376000       30.1936076000       21.7393994000  SOD       40              1.0000000000
        41        41  SOD       SOD            12.7362488000       14.9038291000       21.0402839000  SOD       41              1.0000000000
        42        42  SOD       SOD           -17.1622820000      -24.1645237000       40.2802423000  SOD       42              1.0000000000
        43        43  SOD       SOD           -20.6863951000       31.3906665000      -30.7728937000  SOD       43              1.0000000000
        44        44  SOD       SOD           -19.1105806000      -36.7463507000      -34.0475500000  SOD       44              1.0000000000
        45        45  SOD       SOD            -8.5008885200      -39.7440743000       26.3108347000  SOD       45              1.0000000000
        46        46  SOD       SOD           -35.6364413000       -1.2053464700       49.2186830000  SOD       46              1.0000000000
        47        47  SOD       SOD            27.0522627000      -11.5454963000      -23.2116844000  SOD       47              1.0000000000
        48        48  SOD       SOD            22.8222600000       15.6902841000       42.3900575000  SOD       48              1.0000000000
        49        49  SOD       SOD            37.8665218000      -22.8970942000      -37.4927039000  SOD       49              1.0000000000
        50        50  SOD       SOD            -0.3649514440        9.7909725800       37.0553614000  SOD       50              1.0000000000
        51        51  SOD       SOD            15.5265504000      -28.7907822000       31.2606868000  SOD       51              1.0000000000
        52        52  SOD       SOD            -5.2104923300        9.2776235100      -24.7245262000  SOD       52              1.0000000000
        53        53  SOD       SOD           -30.4894002000        3.0966794600      -33.4255858000  SOD       53              1.0000000000
        54        54  SOD       SOD            10.3682926000      -26.3347188000      -34.8184724000  SOD       54              1.0000000000
        55        55  SOD       SOD           -30.1851182000      -38.1800551000      -25.7752771000  SOD       55              1.0000000000
        56        56  SOD       SOD            15.7850507000      -27.2247379000       33.3222690000  SOD       56              1.0000000000
        57        57  SOD       SOD            16.6076305000      -27.3899770000       21.1524066000  SOD       57              1.0000000000
        58        58  SOD       SOD            10.8171398000      -10.5875277000      -46.5799773000  SOD       58              1.0000000000
        59        59  SOD       SOD            16.2738896000      -21.1148375000       24.0546202000  SOD       59              1.0000000000
        60        60  SOD       SOD           -22.1927349000        3.4552621000       23.9716561000  SOD       60              1.0000000000
        61        61  SOD       SOD            14.1704464000       23.7865806000       46.7290739000  SOD       61              1.0000000000
        62        62  SOD       SOD            23.3998007000       -5.8784567300       47.2357473000  SOD       62              1.0000000000
        63        63  SOD       SOD            11.2425097000      -37.8714783000       31.6449243000  SOD       63              1.0000000000
        64        64  SOD       SOD            35.9004790000      -34.8375088000      -39.9682285000  SOD       64              1.0000000000
        65        65  SOD       SOD            -5.2073883900        9.1308305400      -29.1015173000  SOD       65              1.0000000000
        66        66  SOD       SOD            -2.2866590300        1.4320314300      -38.6673907000  SOD       66              1.0000000000
        67        67  SOD       SOD            23.3924223000      -36.7027795000      -47.1689844000  SOD       67              1.0000000000
        68        68  SOD       SOD            31.6028051000      -27.9820970000      -49.5645083000  SOD       68              1.0000000000
        69        69  SOD       SOD           -26.6114451000       -2.8990636300       24.5694544000  SOD       69              1.0000000000
        70        70  SOD       SOD             5.3272987800      -33.7603588000       27.8681985000  SOD       70              1.0000000000
        71        71  SOD       SOD             2.3587339200      -21.4466907000      -48.9727089000  SOD       71              1.0000000000
        72        72  SOD       SOD           -22.1863453000       11.9281654000      -21.8928558000  SOD       72              1.0000000000
        73        73  SOD       SOD           -30.6332482000      -34.4250162000      -40.9712360000  SOD       73              1.0000000000
        74        74  SOD       SOD            20.0262093000       -0.2991147410      -24.9512638000  SOD       74              1.0000000000
        75        75  SOD       SOD           -23.0627190000       -1.9121863300       29.7016646000  SOD       75              1.0000000000
        76        76  SOD       SOD            14.5023419000       12.8517530000      -22.2588218000  SOD       76              1.0000000000
