; ERG_GMX_OPLS.top created by acpype (v: 2023.10.27) on Thu Sep  3 04:57:03 2026

; Include forcefield parameters
#include "ffoplsaa.itp"

; Include ERG_GMX.itp topology
#include "ERG_GMX.itp"

; Ligand position restraints
#ifdef POSRES_LIG
#include "posre_ERG.itp"
#endif

[ system ]
 ERG

[ molecules ]
; Compound        nmols
 ERG              1     
