%VERSION  VERSION_STAMP = V0001.000  DATE = 09/03/26  05:06:04                  
%FLAG TITLE                                                                     
%FORMAT(20a4)                                                                   
ERG.pdb                                                                         
%FLAG POINTERS                                                                  
%FORMAT(10I8)                                                                   
      78      15      35      50      79      79     157     172       0       0
     478       1      50      79     172      39      86      76      22       0
       0       0       0       0       0       0       0       0      78       0
       0
%FLAG ATOM_NAME                                                                 
%FORMAT(20a4)                                                                   
C   C1  O   C2  C3  C4  C5  C6  N   C7  O1  C8  N1  C9  O2  C10 O3  N2  H   C11 
N3  C12 C13 C14 C15 C16 C17 C18 C19 C20 N4  C21 C22 C23 C24 C25 H1  O4  H2  C26 
C27 C28 C29 C30 C31 C32 H3  H4  H5  H6  H7  H8  H9  H10 H11 H12 H13 H14 H15 H16 
H17 H18 H19 H20 H21 H22 H23 H24 H25 H26 H27 H28 H29 H30 H31 H32 H33 H34 
%FLAG CHARGE                                                                    
%FORMAT(5E16.8)                                                                 
  4.57744176E+00 -1.45960623E+00 -7.64607708E+00  8.61914790E+00  1.52520651E+00
 -1.64729592E+00 -1.81129662E+00  1.56711780E+00 -8.50616964E+00  1.23820529E+01
 -1.13616041E+01  1.17898281E+00 -9.70884144E+00  1.25460535E+01 -1.02135992E+01
  1.23383193E+01 -1.07347569E+01 -9.96577587E+00  5.93135865E+00  2.68050033E+00
 -1.31309894E+01  3.07592424E+00 -2.63312235E+00 -3.13788006E+00 -1.15529382E+00
 -1.42133940E-01 -2.56934430E+00 -2.16845370E+00 -2.40534360E+00 -7.14314160E-01
 -3.56063742E+00 -1.66005153E+00 -2.63130012E+00 -1.85503014E+00  1.42133940E-01
  4.00343931E+00  5.46122331E+00 -1.09115132E+01  7.68981060E+00 -8.58270330E-01
 -1.59080679E+00 -2.14112025E+00 -2.32334325E+00 -2.27778750E+00 -2.32334325E+00
 -2.14112025E+00  1.31869318E+00  1.31869318E+00  1.31869318E+00  1.61631801E+00
  1.27920546E+00  1.27920546E+00  1.04231556E+00  1.04231556E+00  1.15164936E+00
  1.15164936E+00  2.05365321E+00  6.62690384E-01  6.62690384E-01  6.62690384E-01
  1.19720511E+00  1.19720511E+00  1.81676331E+00  2.58756660E+00  2.51467740E+00
  2.36889900E+00  2.44178820E+00  3.06134640E+00  1.03320441E+00  1.03320441E+00
  1.30653891E+00  1.20631626E+00  1.20631626E+00  2.40534360E+00  2.45089935E+00
  2.36889900E+00  2.45089935E+00  2.40534360E+00
%FLAG ATOMIC_NUMBER                                                             
%FORMAT(10I8)                                                                   
       6       6       8       6       6       6       6       6       7       6
       8       6       7       6       8       6       8       7       1       6
       7       6       6       6       6       6       6       6       6       6
       7       6       6       6       6       6       1       8       1       6
       6       6       6       6       6       6       1       1       1       1
       1       1       1       1       1       1       1       1       1       1
       1       1       1       1       1       1       1       1       1       1
       1       1       1       1       1       1       1       1
%FLAG MASS                                                                      
%FORMAT(5E16.8)                                                                 
  1.20100000E+01  1.20100000E+01  1.60000000E+01  1.20100000E+01  1.20100000E+01
  1.20100000E+01  1.20100000E+01  1.20100000E+01  1.40100000E+01  1.20100000E+01
  1.60000000E+01  1.20100000E+01  1.40100000E+01  1.20100000E+01  1.60000000E+01
  1.20100000E+01  1.60000000E+01  1.40100000E+01  1.00800000E+00  1.20100000E+01
  1.40100000E+01  1.20100000E+01  1.20100000E+01  1.20100000E+01  1.20100000E+01
  1.20100000E+01  1.20100000E+01  1.20100000E+01  1.20100000E+01  1.20100000E+01
  1.40100000E+01  1.20100000E+01  1.20100000E+01  1.20100000E+01  1.20100000E+01
  1.20100000E+01  1.00800000E+00  1.60000000E+01  1.00800000E+00  1.20100000E+01
  1.20100000E+01  1.20100000E+01  1.20100000E+01  1.20100000E+01  1.20100000E+01
  1.20100000E+01  1.00800000E+00  1.00800000E+00  1.00800000E+00  1.00800000E+00
  1.00800000E+00  1.00800000E+00  1.00800000E+00  1.00800000E+00  1.00800000E+00
  1.00800000E+00  1.00800000E+00  1.00800000E+00  1.00800000E+00  1.00800000E+00
  1.00800000E+00  1.00800000E+00  1.00800000E+00  1.00800000E+00  1.00800000E+00
  1.00800000E+00  1.00800000E+00  1.00800000E+00  1.00800000E+00  1.00800000E+00
  1.00800000E+00  1.00800000E+00  1.00800000E+00  1.00800000E+00  1.00800000E+00
  1.00800000E+00  1.00800000E+00  1.00800000E+00
%FLAG ATOM_TYPE_INDEX                                                           
%FORMAT(10I8)                                                                   
       1       1       2       1       1       1       1       1       3       4
       5       1       3       4       5       4       5       6       7       1
       8       1       1       4       4       4       4       4       4       4
       9       4       4       4       1       1       7      10      11       1
       4       4       4       4       4       4      12      12      12      13
      12      12      12      12      13      13      13      13      13      13
      13      13      12      14      14      14      14      15      12      12
      13      12      12      14      14      14      14      14
%FLAG NUMBER_EXCLUDED_ATOMS                                                     
%FORMAT(10I8)                                                                   
      17      11      17      18      18      13      10      11      14      12
       4      11      11      10       1      12       6       8       1      12
      17      13       8      11      14      14       9       7       9       9
       7       8       8       8       5       9       1       2       1      10
      12      10       7       7       5       6       2       1       1       2
       3       2       3       2       1       1       2       2       1       1
       2       1       1       1       1       1       1       1       2       1
       1       1       1       1       1       1       1       1
%FLAG NONBONDED_PARM_INDEX                                                      
%FORMAT(10I8)                                                                   
       1       2       4       7      11      16      22      29      37      46
      56      67      79      92     106       2       3       5       8      12
      17      23      30      38      47      57      68      80      93     107
       4       5       6       9      13      18      24      31      39      48
      58      69      81      94     108       7       8       9      10      14
      19      25      32      40      49      59      70      82      95     109
      11      12      13      14      15      20      26      33      41      50
      60      71      83      96     110      16      17      18      19      20
      21      27      34      42      51      61      72      84      97     111
      22      23      24      25      26      27      28      35      43      52
      62      73      85      98     112      29      30      31      32      33
      34      35      36      44      53      63      74      86      99     113
      37      38      39      40      41      42      43      44      45      54
      64      75      87     100     114      46      47      48      49      50
      51      52      53      54      55      65      76      88     101     115
      56      57      58      59      60      61      62      63      64      65
      66      77      89     102     116      67      68      69      70      71
      72      73      74      75      76      77      78      90     103     117
      79      80      81      82      83      84      85      86      87      88
      89      90      91     104     118      92      93      94      95      96
      97      98      99     100     101     102     103     104     105     119
     106     107     108     109     110     111     112     113     114     115
     116     117     118     119     120
%FLAG RESIDUE_LABEL                                                             
%FORMAT(20a4)                                                                   
ERG 
%FLAG RESIDUE_POINTER                                                           
%FORMAT(10I8)                                                                   
       1
%FLAG BOND_FORCE_CONSTANT                                                       
%FORMAT(5E16.8)                                                                 
  2.27640000E+02  2.29450000E+02  2.62590000E+02  2.75610000E+02  3.45250000E+02
  2.51070000E+02  2.20100000E+02  2.89690000E+02  3.43780000E+02  3.46430000E+02
  3.17460000E+02  2.33630000E+02  5.90600000E+02  2.52360000E+02  2.23800000E+02
  3.42020000E+02  3.36070000E+02  4.73590000E+02  2.55850000E+02  3.44220000E+02
  2.53330000E+02  2.26810000E+02  2.44960000E+02  3.42750000E+02  4.24300000E+02
  3.57290000E+02  2.71850000E+02  2.39140000E+02  3.54250000E+02  3.60690000E+02
  3.29320000E+02  4.81770000E+02  3.35500000E+02  3.86240000E+02  3.68720000E+02
  2.88790000E+02  2.50490000E+02  5.35510000E+02  2.43910000E+02
%FLAG BOND_EQUIL_VALUE                                                          
%FORMAT(5E16.8)                                                                 
  1.53720000E+00  1.53460000E+00  1.45450000E+00  1.43460000E+00  1.09620000E+00
  1.46850000E+00  1.54830000E+00  1.41940000E+00  1.09720000E+00  1.09540000E+00
  1.39670000E+00  1.52870000E+00  1.21900000E+00  1.46690000E+00  1.54280000E+00
  1.09840000E+00  1.37980000E+00  1.01320000E+00  1.46260000E+00  1.09690000E+00
  1.46570000E+00  1.53840000E+00  1.51330000E+00  1.09790000E+00  1.34570000E+00
  1.08820000E+00  1.48000000E+00  1.52110000E+00  1.39860000E+00  1.08600000E+00
  1.38580000E+00  1.00950000E+00  1.38030000E+00  1.37300000E+00  1.08090000E+00
  1.46100000E+00  1.50610000E+00  9.72500000E-01  1.51470000E+00
%FLAG ANGLE_FORCE_CONSTANT                                                      
%FORMAT(5E16.8)                                                                 
  4.30600000E+01  6.78700000E+01  7.53100000E+01  7.95900000E+01  5.36200000E+01
  8.96100000E+01  6.03900000E+01  6.51600000E+01  7.67500000E+01  7.71200000E+01
  8.40600000E+01  8.34900000E+01  7.74300000E+01  9.71700000E+01  7.51700000E+01
  7.72200000E+01  6.73400000E+01  6.18400000E+01  4.26500000E+01  6.54000000E+01
  7.58300000E+01  7.75800000E+01  4.26500000E+01  4.75800000E+01  6.51600000E+01
  8.66800000E+01  6.52700000E+01  6.09300000E+01  4.39700000E+01  7.65600000E+01
  7.66300000E+01  5.98900000E+01  4.28900000E+01  8.27200000E+01  6.49000000E+01
  4.80600000E+01  6.81500000E+01  5.73700000E+01  6.02700000E+01  6.07500000E+01
  4.38400000E+01  8.72100000E+01  6.59200000E+01  7.76800000E+01  4.78400000E+01
  6.54200000E+01  4.78500000E+01  6.54800000E+01  7.81900000E+01  6.05700000E+01
  4.32300000E+01  4.32800000E+01  6.12000000E+01  4.25500000E+01  4.39000000E+01
  6.19900000E+01  6.12100000E+01  4.61500000E+01  6.15800000E+01  6.04900000E+01
  4.37200000E+01  5.97500000E+01  6.36700000E+01  4.49000000E+01  6.20200000E+01
  6.78200000E+01  5.52700000E+01  8.04900000E+01  7.28100000E+01  4.79900000E+01
  5.54300000E+01  6.16400000E+01  6.07600000E+01  4.39500000E+01  6.08400000E+01
  4.39200000E+01  5.78500000E+01  4.33000000E+01  6.07400000E+01  4.36100000E+01
  3.58000000E+01  3.59100000E+01  3.57000000E+01  3.56400000E+01  3.57700000E+01
  3.59300000E+01
%FLAG ANGLE_EQUIL_VALUE                                                         
%FORMAT(5E16.8)                                                                 
  1.92911325E+00  1.87518255E+00  2.19335621E+00  1.98897807E+00  2.13000073E+00
  1.90694756E+00  1.93120765E+00  1.96454345E+00  1.90188610E+00  1.88739986E+00
  1.89891904E+00  1.90572583E+00  1.85249326E+00  1.93347657E+00  2.08479669E+00
  2.06821605E+00  1.80920908E+00  1.81217614E+00  1.94028336E+00  1.87047016E+00
  1.94813735E+00  1.95494413E+00  1.94028336E+00  1.92893872E+00  2.04395596E+00
  2.13925098E+00  1.95529320E+00  1.89699918E+00  1.86767763E+00  2.13523672E+00
  2.10259905E+00  1.98112408E+00  1.93085858E+00  1.96052919E+00  1.95773666E+00
  1.89403212E+00  1.79926070E+00  2.04657396E+00  1.94482122E+00  1.94534482E+00
  1.87919681E+00  2.14762857E+00  2.01585615E+00  1.96140185E+00  1.92143380E+00
  1.93452377E+00  1.91340528E+00  1.95476960E+00  1.93208031E+00  1.94447215E+00
  1.91026369E+00  1.90555129E+00  2.14064725E+00  2.03453118E+00  1.90782022E+00
  2.14640683E+00  2.12581194E+00  2.10294812E+00  2.10818411E+00  1.93975976E+00
  1.90607489E+00  2.06542352E+00  2.09474507E+00  2.09230160E+00  2.10888224E+00
  2.09980652E+00  2.19056368E+00  2.04762116E+00  1.86313978E+00  2.11202383E+00
  2.19335621E+00  2.16927066E+00  2.15303909E+00  2.25339556E+00  1.93574550E+00
  1.92283006E+00  2.25374463E+00  1.89455572E+00  2.10888224E+00  1.93085858E+00
  1.88024401E+00  1.87134283E+00  1.88722533E+00  1.89455572E+00  1.87622975E+00
  1.86087085E+00
%FLAG DIHEDRAL_FORCE_CONSTANT                                                   
%FORMAT(5E16.8)                                                                 
  2.93000000E+00  1.41000000E+00  5.00000000E-01  2.50000000E+00  5.80000000E-01
  9.10000000E-01  9.30000000E-01  3.83333333E-01  8.80000000E-01  8.00000000E-02
  7.50000000E-01  1.56000000E+00  8.60000000E-01  6.36666667E-01  7.10000000E-01
  0.00000000E+00  6.80000000E-01  2.00000000E-01  4.40000000E-01  1.15000000E+00
  0.00000000E+00  2.50000000E-01  0.00000000E+00  0.00000000E+00  0.00000000E+00
  1.07000000E+00  2.10000000E-01  1.55555556E-01  1.66666667E-01  1.02000000E+00
  1.70000000E-01  1.00000000E-01  5.20000000E-01  1.30000000E-01  6.00000000E-02
  1.00000000E-01  1.80000000E-01  1.01000000E-01  1.00000000E-01  2.12000000E+00
  6.40000000E-01  3.90000000E-01  8.20000000E-01  8.00000000E-01  8.00000000E-02
  2.40000000E-01  2.10000000E-01  8.90000000E-01  2.00000000E+00  1.17400000E+01
  1.10000000E-01  4.03000000E+00  3.66000000E+00  1.05000000E+00  7.30000000E-01
  2.25000000E-01  3.00000000E-01  1.00000000E+00  3.33333333E-01  1.16000000E+00
  6.65000000E+00  5.85000000E-01  3.72000000E-01  2.60000000E-01  3.62500000E+00
  3.77000000E+00  6.00000000E-01  3.00000000E-01  6.13000000E-01  1.70000000E+00
  4.00000000E+00  1.57000000E-01  0.00000000E+00  1.20000000E-01  1.10000000E+00
  1.05000000E+01
%FLAG DIHEDRAL_PERIODICITY                                                      
%FORMAT(5E16.8)                                                                 
  1.00000000E+00  2.00000000E+00  3.00000000E+00  2.00000000E+00  1.00000000E+00
  2.00000000E+00  3.00000000E+00  3.00000000E+00  1.00000000E+00  2.00000000E+00
  3.00000000E+00  1.00000000E+00  2.00000000E+00  3.00000000E+00  2.00000000E+00
  4.00000000E+00  1.00000000E+00  2.00000000E+00  3.00000000E+00  1.00000000E+00
  2.00000000E+00  1.00000000E+00  3.00000000E+00  2.00000000E+00  1.00000000E+00
  2.00000000E+00  3.00000000E+00  3.00000000E+00  3.00000000E+00  1.00000000E+00
  3.00000000E+00  4.00000000E+00  3.00000000E+00  3.00000000E+00  3.00000000E+00
  3.00000000E+00  3.00000000E+00  3.00000000E+00  1.00000000E+00  2.00000000E+00
  1.00000000E+00  2.00000000E+00  1.00000000E+00  1.00000000E+00  3.00000000E+00
  2.00000000E+00  3.00000000E+00  1.00000000E+00  1.00000000E+00  1.00000000E+00
  2.00000000E+00  1.00000000E+00  2.00000000E+00  3.00000000E+00  3.00000000E+00
  3.00000000E+00  3.00000000E+00  1.00000000E+00  2.00000000E+00  3.00000000E+00
  2.00000000E+00  2.00000000E+00  3.00000000E+00  3.00000000E+00  2.00000000E+00
  2.00000000E+00  2.00000000E+00  2.00000000E+00  2.00000000E+00  2.00000000E+00
  2.00000000E+00  3.00000000E+00  1.00000000E+00  3.00000000E+00  2.00000000E+00
  2.00000000E+00
%FLAG DIHEDRAL_PHASE                                                            
%FORMAT(5E16.8)                                                                 
  0.00000000E+00  3.14159400E+00  0.00000000E+00  3.14159400E+00  3.14159400E+00
  3.14159400E+00  0.00000000E+00  0.00000000E+00  3.14159400E+00  0.00000000E+00
  0.00000000E+00  3.14159400E+00  0.00000000E+00  0.00000000E+00  3.14159400E+00
  3.14159400E+00  0.00000000E+00  3.14159400E+00  3.14159400E+00  3.14159400E+00
  0.00000000E+00  0.00000000E+00  0.00000000E+00  3.14159400E+00  3.14159400E+00
  3.14159400E+00  3.14159400E+00  0.00000000E+00  0.00000000E+00  3.14159400E+00
  0.00000000E+00  3.14159400E+00  0.00000000E+00  0.00000000E+00  0.00000000E+00
  0.00000000E+00  0.00000000E+00  0.00000000E+00  3.14159400E+00  3.14159400E+00
  0.00000000E+00  3.14159400E+00  0.00000000E+00  0.00000000E+00  3.14159400E+00
  3.14159400E+00  0.00000000E+00  0.00000000E+00  0.00000000E+00  0.00000000E+00
  0.00000000E+00  0.00000000E+00  3.14159400E+00  3.14159400E+00  0.00000000E+00
  0.00000000E+00  0.00000000E+00  3.14159400E+00  3.14159400E+00  3.14159400E+00
  3.14159400E+00  3.14159400E+00  0.00000000E+00  3.14159400E+00  3.14159400E+00
  3.14159400E+00  3.14159400E+00  3.14159400E+00  3.14159400E+00  3.14159400E+00
  3.14159400E+00  3.14159400E+00  0.00000000E+00  0.00000000E+00  3.14159400E+00
  3.14159400E+00
%FLAG SCEE_SCALE_FACTOR                                                         
%FORMAT(5E16.8)                                                                 
  1.20000000E+00  1.20000000E+00  1.20000000E+00  1.20000000E+00  1.20000000E+00
  1.20000000E+00  1.20000000E+00  1.20000000E+00  1.20000000E+00  1.20000000E+00
  1.20000000E+00  1.20000000E+00  1.20000000E+00  1.20000000E+00  1.20000000E+00
  1.20000000E+00  1.20000000E+00  1.20000000E+00  1.20000000E+00  1.20000000E+00
  1.20000000E+00  1.20000000E+00  1.20000000E+00  1.20000000E+00  1.20000000E+00
  1.20000000E+00  1.20000000E+00  1.20000000E+00  1.20000000E+00  1.20000000E+00
  1.20000000E+00  1.20000000E+00  1.20000000E+00  1.20000000E+00  1.20000000E+00
  1.20000000E+00  1.20000000E+00  1.20000000E+00  1.20000000E+00  1.20000000E+00
  1.20000000E+00  1.20000000E+00  1.20000000E+00  1.20000000E+00  1.20000000E+00
  1.20000000E+00  1.20000000E+00  1.20000000E+00  1.20000000E+00  1.20000000E+00
  1.20000000E+00  1.20000000E+00  1.20000000E+00  1.20000000E+00  1.20000000E+00
  1.20000000E+00  1.20000000E+00  1.20000000E+00  1.20000000E+00  1.20000000E+00
  1.20000000E+00  1.20000000E+00  1.20000000E+00  1.20000000E+00  1.20000000E+00
  1.20000000E+00  1.20000000E+00  1.20000000E+00  1.20000000E+00  1.20000000E+00
  1.20000000E+00  1.20000000E+00  1.20000000E+00  1.20000000E+00  0.00000000E+00
  0.00000000E+00
%FLAG SCNB_SCALE_FACTOR                                                         
%FORMAT(5E16.8)                                                                 
  2.00000000E+00  2.00000000E+00  2.00000000E+00  2.00000000E+00  2.00000000E+00
  2.00000000E+00  2.00000000E+00  2.00000000E+00  2.00000000E+00  2.00000000E+00
  2.00000000E+00  2.00000000E+00  2.00000000E+00  2.00000000E+00  2.00000000E+00
  2.00000000E+00  2.00000000E+00  2.00000000E+00  2.00000000E+00  2.00000000E+00
  2.00000000E+00  2.00000000E+00  2.00000000E+00  2.00000000E+00  2.00000000E+00
  2.00000000E+00  2.00000000E+00  2.00000000E+00  2.00000000E+00  2.00000000E+00
  2.00000000E+00  2.00000000E+00  2.00000000E+00  2.00000000E+00  2.00000000E+00
  2.00000000E+00  2.00000000E+00  2.00000000E+00  2.00000000E+00  2.00000000E+00
  2.00000000E+00  2.00000000E+00  2.00000000E+00  2.00000000E+00  2.00000000E+00
  2.00000000E+00  2.00000000E+00  2.00000000E+00  2.00000000E+00  2.00000000E+00
  2.00000000E+00  2.00000000E+00  2.00000000E+00  2.00000000E+00  2.00000000E+00
  2.00000000E+00  2.00000000E+00  2.00000000E+00  2.00000000E+00  2.00000000E+00
  2.00000000E+00  2.00000000E+00  2.00000000E+00  2.00000000E+00  2.00000000E+00
  2.00000000E+00  2.00000000E+00  2.00000000E+00  2.00000000E+00  2.00000000E+00
  2.00000000E+00  2.00000000E+00  2.00000000E+00  2.00000000E+00  0.00000000E+00
  0.00000000E+00
%FLAG SOLTY                                                                     
%FORMAT(5E16.8)                                                                 
  0.00000000E+00  0.00000000E+00  0.00000000E+00  0.00000000E+00  0.00000000E+00
  0.00000000E+00  0.00000000E+00  0.00000000E+00  0.00000000E+00  0.00000000E+00
  0.00000000E+00  0.00000000E+00  0.00000000E+00  0.00000000E+00  0.00000000E+00
  0.00000000E+00  0.00000000E+00  0.00000000E+00  0.00000000E+00  0.00000000E+00
  0.00000000E+00  0.00000000E+00
%FLAG LENNARD_JONES_ACOEF                                                       
%FORMAT(5E16.8)                                                                 
  1.02073671E+06  5.42502534E+05  2.83662575E+05  8.52084164E+05  4.46307018E+05
  7.02078680E+05  8.43969952E+05  4.46121722E+05  7.01106848E+05  6.96551276E+05
  6.30925504E+05  3.27367585E+05  5.15491878E+05  5.17507491E+05  3.76435470E+05
  8.48258258E+05  4.47026838E+05  7.02755693E+05  6.99381362E+05  5.17814271E+05
  7.01825028E+05  2.23577481E+03  9.46795083E+02  1.52360475E+03  1.71458823E+03
  9.87857350E+02  1.65195713E+03  1.34728399E-01  8.59569453E+05  4.55871651E+05
  7.16178718E+05  7.10207765E+05  5.29641935E+05  7.13532671E+05  1.82809059E+03
  7.23647490E+05  9.96191545E+05  5.22690526E+05  8.22085792E+05  8.20152428E+05
  6.04208667E+05  8.22346035E+05  1.82491629E+03  8.37490391E+05  9.62429652E+05
  7.18991463E+05  3.78207390E+05  5.94682930E+05  5.92438683E+05  4.37717034E+05
  5.94304835E+05  1.36475542E+03  6.04651377E+05  6.96017793E+05  5.03152404E+05
  3.03553352E+02  1.16469347E+02  1.89434762E+02  2.25372434E+02  1.15813907E+02
  2.13197010E+02  2.61760843E-03  2.45082140E+02  2.29317644E+02  1.74176419E+02
  1.10360882E-05  1.00235148E+05  5.02224902E+04  7.93773615E+04  8.12662403E+04
  5.68021765E+04  8.07866982E+04  9.47421632E+01  8.37616145E+04  9.33839501E+04
  6.80216136E+04  8.80612241E+00  7.94617769E+03  6.97998263E+04  3.44374471E+04
  5.45183252E+04  5.63013422E+04  3.86646725E+04  5.58085097E+04  5.24570081E+01
  5.82112737E+04  6.42436358E+04  4.69084694E+04  4.36660257E+00  5.22955465E+03
  3.39005767E+03  9.27554496E+04  4.65732396E+04  7.35931098E+04  7.52549148E+04
  5.27277400E+04  7.48403283E+04  9.04434904E+01  7.75325560E+04  8.65595848E+04
  6.30298721E+04  8.53132435E+00  7.41026906E+03  4.88692384E+03  6.90855956E+03
  7.75673747E+04  3.86549715E+04  6.11299385E+04  6.27751680E+04  4.36069364E+04
  6.23418310E+04  6.76796831E+01  6.47735754E+04  7.19580450E+04  5.24591488E+04
  6.05535196E+00  6.02863188E+03  3.94664935E+03  5.62610481E+03  4.56536476E+03
%FLAG LENNARD_JONES_BCOEF                                                       
%FORMAT(5E16.8)                                                                 
  6.63431737E+02  4.38146883E+02  2.87011518E+02  6.72777963E+02  4.41089616E+02
  6.77820248E+02  5.90251928E+02  3.88758656E+02  5.97113873E+02  5.24668528E+02
  5.62969425E+02  3.67361018E+02  5.64804067E+02  4.98871431E+02  4.69350655E+02
  6.17825399E+02  4.06301077E+02  6.24158704E+02  5.48900066E+02  5.21008860E+02
  5.74088001E+02  1.71355763E+01  1.01016461E+01  1.57004457E+01  1.46824710E+01
  1.22938581E+01  1.50468782E+01  7.34107347E-02  5.75038595E+02  3.79365004E+02
  5.82583725E+02  5.11427129E+02  4.87196412E+02  5.35211915E+02  1.46352678E+01
  4.98353106E+02  7.68900328E+02  5.04545572E+02  7.75261695E+02  6.82622272E+02
  6.46321327E+02  7.13654906E+02  1.81620725E+01  6.65894869E+02  8.86629877E+02
  5.36620538E+02  3.52573684E+02  5.41675626E+02  4.76608379E+02  4.51916854E+02
  4.98393522E+02  1.29026271E+01  4.64809588E+02  6.19405188E+02  4.32634597E+02
  5.22789272E+00  2.93355636E+00  4.58384710E+00  4.40751799E+00  3.48534600E+00
  4.47571103E+00  8.47240681E-03  4.43692527E+00  5.33073545E+00  3.81654050E+00
  4.55498033E-04  1.37787728E+02  8.83545880E+01  1.36094315E+02  1.21392023E+02
  1.11953944E+02  1.26366740E+02  2.33785449E+00  1.18970742E+02  1.56025608E+02
  1.09393126E+02  5.90150328E-01  2.57122925E+01  1.14981426E+02  7.31636661E+01
  1.12788003E+02  1.01040256E+02  9.23664132E+01  1.05029928E+02  1.73959275E+00
  9.91793374E+01  1.29412081E+02  9.08431526E+01  4.15568027E-01  2.08590256E+01
  1.67944276E+01  1.24325688E+02  7.98066064E+01  1.22913863E+02  1.09570372E+02
  1.01173582E+02  1.14083104E+02  2.14252117E+00  1.07361937E+02  1.40899023E+02
  9.87712192E+01  5.44840215E-01  2.32899892E+01  1.89134207E+01  2.10929191E+01
  1.13692208E+02  7.27065100E+01  1.12023534E+02  1.00073628E+02  9.20079458E+01
  1.04122183E+02  1.85338491E+00  9.81312253E+01  1.28466555E+02  9.01089277E+01
  4.59018960E-01  2.10068861E+01  1.69967767E+01  1.90347353E+01  1.71467049E+01
%FLAG BONDS_INC_HYDROGEN                                                        
%FORMAT(10I8)                                                                   
       3     138       5       3     141       5       3     144       5      12
     147       9      15     150      10      15     153      10      18     156
      10      18     159      10      21     162       9      21     165       9
      33     168      16      51      54      18      57     171      20      57
     174      20      57     177      20      63     180      16      63     183
      16      66     186      24      69     189      26      78     192      30
      81     195      30      84     198      30      90     108      32      93
     201      35     102     204      24     102     207      24     105     210
      16     111     114      38     117     213       5     117     216       5
     123     219      30     126     222      30     129     225      30     132
     228      30     135     231      30
%FLAG BONDS_WITHOUT_HYDROGEN                                                    
%FORMAT(10I8)                                                                   
       0       3       1       0      39       2       0      51       3       0
       6       4       6       9       4       9      36       6       9      12
       7       9     111       8      12      24       6      12      15       7
      15      18       7      18      21       7      21      24       6      24
      27      11      27      33      12      27      30      13      33      36
      14      33     117      15      36      39      11      39      42      13
      45      48      13      45      51      17      45      66      12      57
      60      19      60      63      21      60     105      21      63      66
      22      66      69      23      69      72      25      72      75      27
      72     105      28      75      78      29      75      99      29      78
      81      29      81      84      29      84      87      29      87      99
      29      87      90      31      90      93      33      93      96      34
      96      99      36      96     102      37     102     105      22     117
     120      39     120     123      29     120     135      29     123     126
      29     126     129      29     129     132      29     132     135      29
%FLAG ANGLES_INC_HYDROGEN                                                       
%FORMAT(10I8)                                                                   
       0       3     138       1       0       3     141       1       0       3
     144       1       0      51      54       5       9      12     147      19
       9     111     114      20      12      15     150      23      12      15
     153      23      15      12     147      19      15      18     156      23
      15      18     159      23      18      15     150      23      18      15
     153      23      18      21     162      19      18      21     165      19
      21      18     156      23      21      18     159      23      24      12
     147      24      24      21     162      24      24      21     165      24
      27      33     168      29      33     117     213      33      33     117
     216      33      36      33     168      36      45      51      54      38
      45      66     186      41      60      57     171      45      60      57
     174      45      60      57     177      45      60      63     180      47
      60      63     183      47      60     105     210      47      63      66
     186      51      66      63     180      52      66      63     183      52
      66      69     189      54      69      66     186      55      72      69
     189      58      72     105     210      61      75      78     192      64
      78      81     195      64      81      78     192      64      81      84
     198      64      84      81     195      64      87      84     198      64
      87      90     108      67      90      93     201      70      93      90
     108      71      96      93     201      74      96     102     204      76
      96     102     207      76     102     105     210      52     105     102
     204      51     105     102     207      51     117      33     168      78
     120     117     213      80     120     117     216      80     120     123
     219      64     120     135     231      64     123     126     222      64
     126     123     219      64     126     129     225      64     129     126
     222      64     129     132     228      64     132     129     225      64
     132     135     231      64     135     132     228      64     138       3
     141      81     138       3     144      81     141       3     144      81
     150      15     153      82     156      18     159      82     162      21
     165      83     171      57     174      84     171      57     177      84
     174      57     177      84     180      63     183      85     204     102
     207      86     213     117     216      81
%FLAG ANGLES_WITHOUT_HYDROGEN                                                   
%FORMAT(10I8)                                                                   
       0      39      36       2       0      39      42       3       0      51
      45       4       0       6       9       6       3       0      39       7
       3       0      51       8       3       0       6       9       6       0
      39      10       6       0      51      11       6       9      36      12
       6       9      12      13       6       9     111      14       9      36
      33      15       9      36      39      16       9      12      24      17
       9      12      15      18      12       9      36      17      12       9
     111      21      12      24      21      22      12      24      27      16
      12      15      18      18      15      12      24      17      15      18
      21      18      18      21      24      17      21      24      27      16
      24      27      33      25      24      27      30      26      27      33
      36      27      27      33     117      28      30      27      33      30
      33      36      39      31      33     117     120      32      36       9
     111      34      36      33     117      35      36      39      42      26
      39       0      51      37      45      66      63      39      45      66
      69      40      48      45      51      42      48      45      66      30
      51      45      66      43      57      60      63      44      57      60
     105      44      60      63      66      46      60     105      72      48
      60     105     102      46      63      60     105      49      63      66
      69      50      66      69      72      53      69      72      75      56
      69      72     105      57      72      75      78      59      72      75
      99      59      72     105     102      60      75      72     105      62
      75      78      81      63      75      99      87      63      75      99
      96      65      78      75      99      63      78      81      84      63
      81      84      87      63      84      87      99      63      84      87
      90      66      87      99      96      65      87      90      93      68
      90      87      99      66      90      93      96      69      93      96
      99      72      93      96     102      73      96     102     105      75
      99      96     102      77     117     120     123      79     117     120
     135      79     120     123     126      63     120     135     132      63
     123     120     135      63     123     126     129      63     126     129
     132      63     129     132     135      63
%FLAG DIHEDRALS_INC_HYDROGEN                                                    
%FORMAT(10I8)                                                                   
       3       0      51      54      21       6       0       3     138      22
       6       0      -3     138      23       6       0       3     141      22
       6       0      -3     141      23       6       0       3     144      22
       6       0      -3     144      23       6       0      51      54      21
       6       9      12     147      22       6       9     -12     147      23
       6       9     111     114      29       9      36      33     168      21
       9      12      15     150      34       9      12      15     153      34
      12       9     111     114      35      12      24      21     162      21
      12      24      21     165      21      12      15      18     156      34
      12      15      18     159      34      15      18      21     162      28
      15      18      21     165      28      18      15      12     147      28
      21      18      15     150      34      21      18      15     153      34
      21      24      12     147      21      24      12      15     150      28
      24      12      15     153      28      24      21      18     156      28
      24      21      18     159      28      24      27      33     168      24
      27      24      12     147      24      27      24      21     162      24
      27      24      21     165      24      27      33     117     213      28
      27      33     117     216      28      30      27      33     168      44
      30      27     -33     168      45      36       9      12     147      28
      36       9     111     114      29      36      33     117     213      28
      36      33     117     216      28      39       0       3     138      28
      39       0       3     141      28      39       0       3     144      28
      39       0      51      54      21      39      36      33     168      24
      45      66      63     180      28      45      66      63     183      28
      45      66      69     189      21      48      45      51      54      49
      48      45     -51      54       4      48      45      66     186      52
      48      45     -66     186      53      51       0       3     138      28
      51       0       3     141      28      51       0       3     144      28
      51      45      66     186      24      54      51      45      66       4
      57      60      63     180      56      57      60      63     183      56
      57      60     105     210      56      60      63      66     186      36
      60     105     102     204      36      60     105     102     207      36
      63      60      57     171      56      63      60      57     174      56
      63      60      57     177      56      63      60     105     210      56
      63      66      69     189      21      69      66      63     180      28
      69      66      63     183      28      69      72     105     210      64
      72      69      66     186      21      72      75      78     192      65
      72     105     102     204      28      72     105     102     207      28
      75      72      69     189      61      75      72     105     210      64
      75      78      81     195      65      78      81      84     198      65
      84      81      78     192      65      84      87      90     108      68
      87      84      81     195      65      87      90      93     201      70
      90      87      84     198      65      93      96     102     204      23
      93      96     102     207      23      96      93      90     108      70
      96     102     105     210      28      99      75      78     192      65
      99      87      84     198      65      99      87      90     108      68
      99      96      93     201      71      99      96     102     204      23
      99      96     102     207      23     102      96      93     201      71
     105      60      57     171      56     105      60      57     174      56
     105      60      57     177      56     105      60      63     180      56
     105      60      63     183      56     105      72      69     189      61
     108      90      93     201      70     111       9      12     147      22
     111       9     -12     147      23     117     120     123     219      65
     117     120     135     231      65     120     117      33     168      28
     120     123     126     222      65     120     135     132     228      65
     123     120     117     213      73     123     120     117     216      73
     123     120     135     231      65     123     126     129     225      65
     126     129     132     228      65     129     126     123     219      65
     129     132     135     231      65     132     129     126     222      65
     135     120     117     213      73     135     120     117     216      73
     135     120     123     219      65     135     132     129     225      65
     147      12      15     150      28     147      12      15     153      28
     150      15      18     156      74     150      15      18     159      74
     153      15      18     156      74     153      15      18     159      74
     156      18      21     162      28     156      18      21     165      28
     159      18      21     162      28     159      18      21     165      28
     168      33     117     213      28     168      33     117     216      28
     180      63      66     186      28     183      63      66     186      28
     186      66      69     189      21     192      78      81     195      65
     195      81      84     198      65     204     102     105     210      28
     207     102     105     210      28     219     123     126     222      65
     222     126     129     225      65     225     129     132     228      65
     228     132     135     231      65      45       0     -51     -54      75
      66      72     -69    -189      76      75      81     -78    -192      75
      78      84     -81    -195      75      81      87     -84    -198      75
      87      93     -90    -108      75      96     201     -93     -90      76
     120     126    -123    -219      75     123     129    -126    -222      75
     126     132    -129    -225      75     129     135    -132    -228      75
     120     132    -135    -231      75
%FLAG DIHEDRALS_WITHOUT_HYDROGEN                                                
%FORMAT(10I8)                                                                   
       0      39     -36       9       1       0      39     -36       9       2
       0      39     -36       9       3       0      39      36      33       1
       0      39     -36      33       2       0      39     -36      33       3
       0      51      45      48       4       0      51      45      66       5
       0      51     -45      66       6       0      51     -45      66       7
       0       6      -9      36       8       0       6       9      12       9
       0       6      -9      12      10       0       6      -9      12      11
       0       6       9     111      12       0       6      -9     111      13
       0       6      -9     111      14       3       0      39      36      15
       3       0     -39      36      16       3       0      39      42      17
       3       0     -39      42      18       3       0     -39      42      19
       3       0      51      45      20       3       0       6       9       9
       3       0      -6       9      10       3       0      -6       9      11
       6       0     -39      36      24       6       0      39      42      25
       6       0     -39      42      26       6       0     -39      42      27
       6       0      51      45      21       6       9      36      33      21
       6       9     -36      39      21       6       9      12      24      28
       6       9      12      15      28      39       0      -6       9       8
      51       0       6       9       8       9      36      33      27      21
       9      36      33     117      21       9      36      39      42       4
       9      12      24      21      21       9      12     -24      27      30
       9      12     -24      27      31       9      12     -24      27      32
       9      12      15      18      33      12       9      36      33      21
      12       9      36      39      30      12       9     -36      39      31
      12       9     -36      39      32      12      24     -21      18      21
      12      24     -27      33       1      12      24     -27      33       2
      12      24     -27      33       3      12      24      27      30       4
      12      15     -18      21      33      15      12       9      36      36
      15      12       9     111      37      15      12     -24      21      21
      15      12      24      27      30      15      12     -24      27      31
      15      12     -24      27      32      15      18     -21      24      36
      18      15     -12      24      36      18      21      24      27      30
      18      21     -24      27      31      18      21     -24      27      32
      21      24      27      33       1      21      24     -27      33       2
      21      24     -27      33       3      21      24      27      30       4
      24      12       9      36      28      24      12       9     111      38
      24      27     -33      36      39      24      27     -33      36      40
      24      27      33     117      15      24      27     -33     117      16
      27      33      36      39      41      27      33     -36      39      42
      27      33     117     120      43      30      27      33      36      24
      30      27      33     117      17      30      27     -33     117      18
      30      27     -33     117      19      33      36       9     111      21
      33      36      39      42       4      33     117     120     123      46
      33     117     120     135      46      36      33     117     120      47
      51       0      39      36      39      51       0     -39      36      40
      39       0      51      45      48      39      36       9     111      21
      39      36      33     117      30      39      36     -33     117      31
      39      36     -33     117      32      51       0      39      42      24
      45      66      63      60      28      45      66      69      72      21
      48      45      66      63      50      48      45     -66      63      51
      48      45     -66      63      45      48      45      66      69      24
      51      45      66      63      54      51      45      66      69      24
      57      60      63      66      55      57      60     105      72      57
      57      60     105     102      55      60      63      66      69      28
      60     105     -72      69      58      60     105     -72      69      59
      60     105     -72      69      60      60     105      72      75      58
      60     105     -72      75      59      60     105     -72      75      60
      60     105     102      96      28      63      60     105      72      57
      63      60     105     102      55      63      66     -69      72      21
      66      63      60     105      55      66      69      72      75      61
      66      69     -72     105      61      69      72      75      78      62
      69      72      75      99      62      69      72     105     102      63
      72      75      78      81      65      72      75      99      87      65
      72      75      99      96      65      72     105    -102      96      28
      75      72     105     102      63      75      78      81      84      65
      75      99     -87      84      65      75      99      87      90      65
      75      99      96      93      66      75      99     -96     102      67
      78      75      72     105      67      78      75      99      87      65
      78      75      99      96      65      78      81     -84      87      65
      81      78      75      99      65      81      84     -87      99      65
      81      84      87      90      65      84      87      99      96      65
      84      87      90      93      69      87      99     -96      93      66
      87      99      96     102      67      87      90     -93      96      70
      90      87     -99      96      65      90      93     -96      99      71
      90      93      96     102      71      93      90     -87      99      69
      93      96     102     105      72      99      75      72     105      67
      99      96    -102     105      23     117     120     123     126      65
     117     120     135     132      65     120     123     126     129      65
     120     135    -132     129      65     123     120     135     132      65
     123     126    -129     132      65     126     123     120     135      65
     126     129    -132     135      65      27      12     -24     -21      75
      33      24     -27     -30      76      39       9     -36     -33      75
       0      36     -39     -42      76      66      51     -45     -48      76
      69     105     -72     -75      76      78      99     -75     -72      75
      84      99     -87     -90      76     102      99     -96     -93      76
      75      87     -99     -96      75     123     135    -120    -117      75
%FLAG EXCLUDED_ATOMS_LIST                                                       
%FORMAT(10I8)                                                                   
       2       3       4       5      12      13      14      15      16      17
      18      19      23      38      47      48      49       3       4      13
      14      15      16      18      19      47      48      49       4       5
       6       9      12      13      14      15      16      18      19      38
      39      47      48      49      50       5       6       7       8       9
      10      12      13      14      15      18      38      39      40      50
      51      52      57       6       7       8       9      10      11      12
      13      14      38      39      50      51      52      53      54      55
      56       7       8       9      10      13      38      50      51      52
      53      54      55      56       8       9      10      50      51      52
      53      54      55      56       9      10      11      12      50      51
      52      53      54      55      56      10      11      12      13      38
      40      50      51      52      53      54      55      56      57      11
      12      13      14      40      41      50      55      56      57      72
      73      12      13      40      57      13      14      15      38      40
      41      42      46      57      72      73      14      15      18      38
      39      40      41      50      57      72      73      15      16      18
      19      38      40      47      48      49      57      18      17      18
      19      21      22      23      24      25      61      62      63      64
      18      19      22      23      24      63      19      22      23      24
      47      48      49      63      23      21      22      23      25      35
      36      58      59      60      61      62      71      22      23      24
      25      26      33      35      36      58      59      60      61      62
      63      69      70      71      23      24      25      35      36      58
      59      60      61      62      63      64      71      24      25      26
      36      61      62      63      64      25      26      27      34      35
      36      61      62      63      64      71      26      27      28      30
      33      34      35      36      63      64      65      69      70      71
      27      28      29      30      31      32      33      34      35      36
      64      65      66      71      28      29      30      33      34      36
      65      66      67      29      30      31      34      65      66      67
      30      31      32      33      34      37      65      66      67      31
      32      33      34      35      37      66      67      68      32      33
      34      35      37      67      68      33      34      35      36      37
      68      69      70      34      35      36      37      68      69      70
      71      35      36      37      65      67      68      69      70      36
      68      69      70      71      58      59      60      61      62      64
      69      70      71      68      39      50       0      41      42      43
      45      46      57      72      73      74      78      42      43      44
      45      46      57      72      73      74      75      77      78      43
      44      45      46      72      73      74      75      76      78      44
      45      46      74      75      76      77      45      46      74      75
      76      77      78      46      75      76      77      78      72      73
      74      76      77      78      48      49      49       0      51      52
      52      53      54      53      54      54      55      56      55      56
      56       0      72      73      59      60      60       0      62      63
      63      64       0      66      67       0       0      70      71      71
       0      73       0      75      76      77      78       0
%FLAG HBOND_ACOEF                                                               
%FORMAT(5E16.8)                                                                 

%FLAG HBOND_BCOEF                                                               
%FORMAT(5E16.8)                                                                 

%FLAG HBCUT                                                                     
%FORMAT(5E16.8)                                                                 

%FLAG AMBER_ATOM_TYPE                                                           
%FORMAT(20a4)                                                                   
c5  c3  os  c5  c5  c5  c5  c5  n   c   o   c6  n   c   o   c   o   ns  hn  c3  
n3  c6  c6  c2  ce  ca  ca  ca  ca  ca  na  cc  cd  ca  c6  c6  hn  oh  ho  c3  
ca  ca  ca  ca  ca  ca  hc  hc  hc  h1  hc  hc  hc  hc  h1  h1  h1  h1  h1  h1  
h1  h1  hc  ha  ha  ha  ha  h4  hc  hc  h1  hc  hc  ha  ha  ha  ha  ha  
%FLAG TREE_CHAIN_CLASSIFICATION                                                 
%FORMAT(20a4)                                                                   
BLA BLA BLA BLA BLA BLA BLA BLA BLA BLA BLA BLA BLA BLA BLA BLA BLA BLA BLA BLA 
BLA BLA BLA BLA BLA BLA BLA BLA BLA BLA BLA BLA BLA BLA BLA BLA BLA BLA BLA BLA 
BLA BLA BLA BLA BLA BLA BLA BLA BLA BLA BLA BLA BLA BLA BLA BLA BLA BLA BLA BLA 
BLA BLA BLA BLA BLA BLA BLA BLA BLA BLA BLA BLA BLA BLA BLA BLA BLA BLA 
%FLAG JOIN_ARRAY                                                                
%FORMAT(10I8)                                                                   
       0       0       0       0       0       0       0       0       0       0
       0       0       0       0       0       0       0       0       0       0
       0       0       0       0       0       0       0       0       0       0
       0       0       0       0       0       0       0       0       0       0
       0       0       0       0       0       0       0       0       0       0
       0       0       0       0       0       0       0       0       0       0
       0       0       0       0       0       0       0       0       0       0
       0       0       0       0       0       0       0       0
%FLAG IROTAT                                                                    
%FORMAT(10I8)                                                                   
       0       0       0       0       0       0       0       0       0       0
       0       0       0       0       0       0       0       0       0       0
       0       0       0       0       0       0       0       0       0       0
       0       0       0       0       0       0       0       0       0       0
       0       0       0       0       0       0       0       0       0       0
       0       0       0       0       0       0       0       0       0       0
       0       0       0       0       0       0       0       0       0       0
       0       0       0       0       0       0       0       0
%FLAG RADIUS_SET                                                                
%FORMAT(1a80)                                                                   
modified Bondi radii (mbondi)                                                   
%FLAG RADII                                                                     
%FORMAT(5E16.8)                                                                 
  1.70000000E+00  1.70000000E+00  1.50000000E+00  1.70000000E+00  1.70000000E+00
  1.70000000E+00  1.70000000E+00  1.70000000E+00  1.55000000E+00  1.70000000E+00
  1.50000000E+00  1.70000000E+00  1.55000000E+00  1.70000000E+00  1.50000000E+00
  1.70000000E+00  1.50000000E+00  1.55000000E+00  1.30000000E+00  1.70000000E+00
  1.55000000E+00  1.70000000E+00  1.70000000E+00  1.70000000E+00  1.70000000E+00
  1.70000000E+00  1.70000000E+00  1.70000000E+00  1.70000000E+00  1.70000000E+00
  1.55000000E+00  1.70000000E+00  1.70000000E+00  1.70000000E+00  1.70000000E+00
  1.70000000E+00  1.30000000E+00  1.50000000E+00  8.00000000E-01  1.70000000E+00
  1.70000000E+00  1.70000000E+00  1.70000000E+00  1.70000000E+00  1.70000000E+00
  1.70000000E+00  1.30000000E+00  1.30000000E+00  1.30000000E+00  1.30000000E+00
  1.30000000E+00  1.30000000E+00  1.30000000E+00  1.30000000E+00  1.30000000E+00
  1.30000000E+00  1.30000000E+00  1.30000000E+00  1.30000000E+00  1.30000000E+00
  1.30000000E+00  1.30000000E+00  1.30000000E+00  1.30000000E+00  1.30000000E+00
  1.30000000E+00  1.30000000E+00  1.30000000E+00  1.30000000E+00  1.30000000E+00
  1.30000000E+00  1.30000000E+00  1.30000000E+00  1.30000000E+00  1.30000000E+00
  1.30000000E+00  1.30000000E+00  1.30000000E+00
%FLAG SCREEN                                                                    
%FORMAT(5E16.8)                                                                 
  7.20000000E-01  7.20000000E-01  8.50000000E-01  7.20000000E-01  7.20000000E-01
  7.20000000E-01  7.20000000E-01  7.20000000E-01  7.90000000E-01  7.20000000E-01
  8.50000000E-01  7.20000000E-01  7.90000000E-01  7.20000000E-01  8.50000000E-01
  7.20000000E-01  8.50000000E-01  7.90000000E-01  8.50000000E-01  7.20000000E-01
  7.90000000E-01  7.20000000E-01  7.20000000E-01  7.20000000E-01  7.20000000E-01
  7.20000000E-01  7.20000000E-01  7.20000000E-01  7.20000000E-01  7.20000000E-01
  7.90000000E-01  7.20000000E-01  7.20000000E-01  7.20000000E-01  7.20000000E-01
  7.20000000E-01  8.50000000E-01  8.50000000E-01  8.50000000E-01  7.20000000E-01
  7.20000000E-01  7.20000000E-01  7.20000000E-01  7.20000000E-01  7.20000000E-01
  7.20000000E-01  8.50000000E-01  8.50000000E-01  8.50000000E-01  8.50000000E-01
  8.50000000E-01  8.50000000E-01  8.50000000E-01  8.50000000E-01  8.50000000E-01
  8.50000000E-01  8.50000000E-01  8.50000000E-01  8.50000000E-01  8.50000000E-01
  8.50000000E-01  8.50000000E-01  8.50000000E-01  8.50000000E-01  8.50000000E-01
  8.50000000E-01  8.50000000E-01  8.50000000E-01  8.50000000E-01  8.50000000E-01
  8.50000000E-01  8.50000000E-01  8.50000000E-01  8.50000000E-01  8.50000000E-01
  8.50000000E-01  8.50000000E-01  8.50000000E-01
%FLAG IPOL                                                                      
%FORMAT(1I8)                                                                    
       0
