; ERG_GMX.top created by acpype (v: 2023.10.27) on Thu Sep  3 04:57:03 2026

[ defaults ]
; nbfunc        comb-rule       gen-pairs       fudgeLJ fudgeQQ
1               2               yes             0.5     0.8333333333

; Include ERG_GMX.itp topology
#include "ERG_GMX.itp"

; Ligand position restraints
#ifdef POSRES_LIG
#include "posre_ERG.itp"
#endif

[ system ]
 ERG

[ molecules ]
; Compound        nmols
 ERG              1     
