ERG.pdb
    78
  -6.3180000  19.7970000  -1.8560000  -6.6420000  20.4890000  -3.1720000
  -7.3410000  20.0760000  -0.8890000  -7.6400000  18.8710000  -0.2100000
  -9.1430000  18.7330000   0.0830000  -9.7240000  19.6100000   1.1910000
 -11.0040000  18.8560000   1.5590000 -10.5880000  17.3900000   1.4730000
  -9.5080000  17.3820000   0.5060000  -8.8370000  16.2370000   0.1240000
  -9.2220000  15.1270000   0.4930000  -7.5540000  16.4200000  -0.7520000
  -7.2600000  17.8190000  -1.0820000  -6.3810000  18.2730000  -2.0270000
  -5.7180000  17.5980000  -2.7970000  -4.5730000  21.4480000  -1.2100000
  -5.2650000  22.4290000  -1.4680000  -5.0230000  20.1540000  -1.3170000
  -4.3410000  19.4040000  -1.2610000  -0.8930000  22.8070000   0.9590000
  -1.8660000  21.8440000   1.4780000  -3.1660000  21.9850000   0.7940000
  -3.1360000  21.6000000  -0.6980000  -2.3480000  20.3360000  -0.9520000
  -1.5990000  19.7580000   0.0080000  -0.9620000  18.4340000  -0.2060000
  -1.2420000  17.4850000  -1.2000000  -0.5770000  16.2500000  -1.2230000
   0.3830000  15.9090000  -0.2600000   0.6500000  16.8610000   0.7270000
   1.5080000  16.8540000   1.8050000   1.4260000  18.0480000   2.4900000
   0.4960000  18.8300000   1.8450000   0.0040000  18.0860000   0.7490000
   0.0080000  20.2170000   2.0670000  -1.4100000  20.4210000   1.4110000
   2.1170000  16.0860000   2.0500000  -6.8300000  18.7760000   0.9380000
  -7.3880000  18.3320000   1.5960000  -6.3550000  15.7530000  -0.0410000
  -5.6700000  14.7130000  -0.8990000  -6.3750000  13.5850000  -1.3390000
  -5.7440000  12.6150000  -2.1180000  -4.4020000  12.7610000  -2.4620000
  -3.6900000  13.8760000  -2.0230000  -4.3190000  14.8470000  -1.2440000
  -5.8740000  20.2750000  -3.8860000  -6.6990000  21.5460000  -3.0150000
  -7.5810000  20.1330000  -3.5410000  -9.5420000  19.0320000  -0.8640000
  -9.9420000  20.5940000   0.8330000  -9.0590000  19.7580000   2.0160000
 -11.7890000  19.0730000   0.8650000 -11.3860000  19.1260000   2.5210000
 -11.4030000  16.7840000   1.1370000 -10.2920000  16.9920000   2.4210000
  -7.7380000  15.9420000  -1.6910000  -1.2920000  23.7970000   1.0420000
  -0.6890000  22.5890000  -0.0690000   0.0130000  22.7390000   1.5250000
  -3.4780000  23.0060000   0.8720000  -3.8430000  21.3090000   1.2740000
  -2.6390000  22.3840000  -1.2300000  -2.3840000  19.9030000  -1.8880000
  -1.9460000  17.6980000  -1.9240000  -0.8010000  15.5740000  -1.9700000
   0.8690000  14.9990000  -0.2790000   1.9640000  18.3070000   3.3320000
   0.7000000  20.9070000   1.6300000  -0.0730000  20.3890000   3.1200000
  -2.0800000  19.8590000   2.0280000  -6.7070000  15.2810000   0.8530000
  -5.6390000  16.5190000   0.1700000  -7.3690000  13.4710000  -1.0850000
  -6.2720000  11.7890000  -2.4400000  -3.9360000  12.0450000  -3.0410000
  -2.6950000  13.9830000  -2.2750000  -3.7860000  15.6690000  -0.9200000
