PDL optimized complex
   65
    1PDL     PD    1   1.763   2.493   1.439
    1PDL     C2    2   1.480   2.462   1.482
    1PDL     C3    3   2.046   2.523   1.396
    1PDL     C4    4   1.359   2.259   1.381
    1PDL     C5    5   2.167   2.725   1.496
    1PDL     C6    6   1.484   2.328   1.423
    1PDL     C7    7   2.042   2.657   1.454
    1PDL     N8    8   1.581   2.538   1.507
    1PDL     N9    9   1.945   2.448   1.371
    1PDL    N10   10   1.591   2.255   1.412
    1PDL    N11   11   1.934   2.731   1.465
    1PDL    N12   12   1.351   2.506   1.524
    1PDL    N13   13   2.176   2.479   1.354
    1PDL    N14   14   1.241   2.325   1.417
    1PDL    N15   15   2.285   2.661   1.462
    1PDL    O16   16   1.122   2.487   1.522
    1PDL    O17   17   2.403   2.495   1.356
    1PDL    O18   18   1.359   2.155   1.318
    1PDL    O19   19   2.169   2.830   1.558
    1PDL    N20   20   1.711   2.297   1.440
    1PDL    N21   21   1.814   2.688   1.437
    1PDL    C22   22   1.232   2.443   1.491
    1PDL    C23   23   2.295   2.541   1.388
    1PDL    C24   24   1.114   2.264   1.378
    1PDL    C25   25   2.409   2.726   1.504
    1PDL    C26   26   1.344   2.629   1.602
    1PDL    C27   27   2.182   2.357   1.275
    1PDL    C28   28   1.804   2.194   1.456
    1PDL    C29   29   1.782   2.065   1.399
    1PDL    C30   30   1.875   1.964   1.415
    1PDL    C31   31   1.993   1.985   1.492
    1PDL    C32   32   2.013   2.111   1.551
    1PDL    C33   33   1.921   2.214   1.532
    1PDL    N34   34   2.083   1.884   1.509
    1PDL    C35   35   1.722   2.792   1.422
    1PDL    C36   36   1.604   2.772   1.346
    1PDL    C37   37   1.513   2.873   1.327
    1PDL    C38   38   1.532   3.000   1.386
    1PDL    C39   39   1.651   3.021   1.463
    1PDL    C40   40   1.744   2.920   1.478
    1PDL    N41   41   1.442   3.101   1.369
    1PDL    H42   42   1.136   2.174   1.319
    1PDL    H43   43   1.056   2.237   1.468
    1PDL    H44   44   1.053   2.334   1.320
    1PDL    H45   45   2.493   2.663   1.472
    1PDL    H46   46   2.417   2.826   1.458
    1PDL    H47   47   2.409   2.739   1.613
    1PDL    H48   48   1.411   2.622   1.689
    1PDL    H49   49   1.376   2.715   1.542
    1PDL    H50   50   1.240   2.642   1.635
    1PDL    H51   51   2.286   2.343   1.242
    1PDL    H52   52   2.150   2.270   1.336
    1PDL    H53   53   2.113   2.363   1.190
    1PDL    H54   54   1.692   2.048   1.341
    1PDL    H55   55   1.858   1.867   1.368
    1PDL    H56   56   2.101   2.129   1.613
    1PDL    H57   57   1.936   2.310   1.582
    1PDL    H58   58   2.071   1.795   1.462
    1PDL    H59   59   2.171   1.901   1.556
    1PDL    H60   60   1.590   2.675   1.296
    1PDL    H61   61   1.424   2.856   1.266
    1PDL    H62   62   1.668   3.119   1.509
    1PDL    H63   63   1.835   2.937   1.537
    1PDL    H64   64   1.354   3.084   1.322
    1PDL    H65   65   1.455   3.190   1.416
   3.52539   3.32377   2.87847   0.00000   0.00000   1.17513   0.00000  -1.17513   1.66188
