PDL
   65
    1PDL     PD    1   1.763   2.493   1.439
    1PDL     C2    2   1.481   2.457   1.495
    1PDL     C3    3   2.044   2.528   1.382
    1PDL     C4    4   1.365   2.266   1.376
    1PDL     C5    5   2.161   2.718   1.501
    1PDL     C6    6   1.490   2.335   1.418
    1PDL     C7    7   2.036   2.650   1.460
    1PDL     N8    8   1.590   2.520   1.538
    1PDL     N9    9   1.936   2.466   1.340
    1PDL    N10   10   1.606   2.283   1.384
    1PDL    N11   11   1.921   2.703   1.494
    1PDL    N12   12   1.356   2.510   1.528
    1PDL    N13   13   2.170   2.475   1.350
    1PDL    N14   14   1.245   2.328   1.415
    1PDL    N15   15   2.282   2.656   1.464
    1PDL    O16   16   1.127   2.497   1.514
    1PDL    O17   17   2.398   2.486   1.365
    1PDL    O18   18   1.366   2.161   1.314
    1PDL    O19   19   2.161   2.824   1.564
    1PDL    N20   20   1.704   2.299   1.463
    1PDL    N21   21   1.822   2.686   1.415
    1PDL    C22   22   1.236   2.448   1.487
    1PDL    C23   23   2.290   2.536   1.391
    1PDL    C24   24   1.116   2.263   1.377
    1PDL    C25   25   2.408   2.725   1.504
    1PDL    C26   26   1.348   2.637   1.606
    1PDL    C27   27   2.177   2.348   1.272
    1PDL    C28   28   1.799   2.201   1.465
    1PDL    C29   29   1.781   2.074   1.402
    1PDL    C30   30   1.877   1.973   1.416
    1PDL    C31   31   1.991   1.996   1.493
    1PDL    C32   32   2.011   2.120   1.555
    1PDL    C33   33   1.915   2.222   1.541
    1PDL    N34   34   2.082   1.896   1.509
    1PDL    C35   35   1.727   2.785   1.413
    1PDL    C36   36   1.611   2.764   1.337
    1PDL    C37   37   1.515   2.866   1.323
    1PDL    C38   38   1.534   2.990   1.385
    1PDL    C39   39   1.648   3.012   1.461
    1PDL    C40   40   1.745   2.911   1.476
    1PDL    N41   41   1.443   3.089   1.369
    1PDL    H42   42   1.130   2.173   1.317
    1PDL    H43   43   1.061   2.236   1.468
    1PDL    H44   44   1.055   2.334   1.319
    1PDL    H45   45   2.497   2.668   1.477
    1PDL    H46   46   2.413   2.823   1.456
    1PDL    H47   47   2.408   2.739   1.613
    1PDL    H48   48   1.415   2.631   1.692
    1PDL    H49   49   1.379   2.720   1.542
    1PDL    H50   50   1.246   2.656   1.642
    1PDL    H51   51   2.278   2.330   1.234
    1PDL    H52   52   2.147   2.265   1.336
    1PDL    H53   53   2.109   2.354   1.186
    1PDL    H54   54   1.692   2.052   1.343
    1PDL    H55   55   1.861   1.877   1.369
    1PDL    H56   56   2.100   2.137   1.615
    1PDL    H57   57   1.930   2.317   1.591
    1PDL    H58   58   2.075   1.815   1.449
    1PDL    H59   59   2.173   1.920   1.547
    1PDL    H60   60   1.595   2.668   1.287
    1PDL    H61   61   1.426   2.848   1.263
    1PDL    H62   62   1.664   3.109   1.508
    1PDL    H63   63   1.834   2.934   1.534
    1PDL    H64   64   1.352   3.065   1.331
    1PDL    H65   65   1.450   3.170   1.429
   3.52539   3.32377   2.87847   0.00000   0.00000   1.17513   0.00000  -1.17513   1.66188
