PDL
   65
    1PDL     PD    1   1.704   2.469   1.518  0.1593  0.1338 -0.0470
    1PDL     C2    2   1.530   2.355   1.513  0.3374 -0.4882 -0.0112
    1PDL     C3    3   1.939   2.574   1.606  0.0097 -0.6277  0.7872
    1PDL     C4    4   1.425   2.518   1.672 -0.1621 -0.0783 -0.0969
    1PDL     C5    5   2.102   2.582   1.408 -0.4925  0.0566  0.3307
    1PDL     C6    6   1.534   2.486   1.577 -0.0206 -0.0265 -0.1221
    1PDL     C7    7   2.000   2.512   1.488  0.0848  0.1577  0.1512
    1PDL     N8    8   1.618   2.316   1.418  0.3471  0.0863  0.5694
    1PDL     N9    9   1.837   2.513   1.667  0.2708  0.1177  0.3192
    1PDL    N10   10   1.622   2.575   1.545  0.0694 -0.6712  0.3519
    1PDL    N11   11   1.969   2.389   1.462 -0.5766  0.1038 -0.0911
    1PDL    N12   12   1.428   2.265   1.538 -0.3765 -0.6331 -0.2354
    1PDL    N13   13   1.960   2.708   1.631 -0.6137 -0.0808 -0.1250
    1PDL    N14   14   1.316   2.427   1.678 -0.1447 -0.0454  0.4342
    1PDL    N15   15   2.124   2.715   1.449 -0.1693 -0.1796 -0.3394
    1PDL    O16   16   1.236   2.213   1.648  0.1137 -0.5705 -1.0868
    1PDL    O17   17   2.079   2.898   1.577  1.3163 -0.7918  0.8696
    1PDL    O18   18   1.421   2.622   1.734 -1.2179  2.0930  0.1525
    1PDL    O19   19   2.168   2.531   1.318 -1.9524  0.0786 -1.4459
    1PDL    N20   20   1.608   2.621   1.424  0.0607  0.5828  0.4869
    1PDL    N21   21   1.850   2.365   1.430 -0.3049  0.1086 -0.5092
    1PDL    C22   22   1.316   2.299   1.614  0.0814 -0.3828  0.3745
    1PDL    C23   23   2.057   2.778   1.553  0.0599  0.1341 -0.2068
    1PDL    C24   24   1.206   2.466   1.757  0.2288  0.0418 -0.0199
    1PDL    C25   25   2.235   2.794   1.387 -0.5173  0.1862  0.1812
    1PDL    C26   26   1.434   2.134   1.477 -0.0283  0.1657  0.1838
    1PDL    C27   27   1.872   2.776   1.725 -0.2620 -0.1916  0.0788
    1PDL    C28   28   1.695   2.718   1.386 -0.3371 -0.1555  0.6501
    1PDL    C29   29   1.694   2.842   1.458  0.4346  0.2488  0.3357
    1PDL    C30   30   1.777   2.949   1.422  0.0244 -0.1509 -0.1995
    1PDL    C31   31   1.865   2.933   1.315 -0.1562  0.1935 -0.1000
    1PDL    C32   32   1.869   2.811   1.249  0.6203  0.2909 -0.4259
    1PDL    C33   33   1.783   2.704   1.277  0.3565  0.5217 -0.1267
    1PDL    N34   34   1.963   3.024   1.303 -0.6138  0.2809 -0.1299
    1PDL    C35   35   1.838   2.258   1.350  0.0160  0.7781 -0.6176
    1PDL    C36   36   1.823   2.128   1.410 -0.3780  0.2369 -0.8392
    1PDL    C37   37   1.812   2.017   1.322 -0.1409 -0.6041  0.1347
    1PDL    C38   38   1.835   2.033   1.184  0.1920  0.4861 -0.0404
    1PDL    C39   39   1.847   2.155   1.128 -0.2576 -0.2032 -0.0588
    1PDL    C40   40   1.856   2.267   1.211  0.7778 -0.5150 -0.4997
    1PDL    N41   41   1.800   1.928   1.106  0.1028  0.1989 -0.0223
    1PDL    H42   42   1.113   2.438   1.706  0.0866 -0.9920  0.7850
    1PDL    H43   43   1.204   2.420   1.857  1.2011 -2.3936 -1.0953
    1PDL    H44   44   1.195   2.575   1.764 -2.1574 -0.1322 -0.7553
    1PDL    H45   45   2.312   2.811   1.463 -1.0354 -0.6388  0.8986
    1PDL    H46   46   2.278   2.741   1.300 -1.8573 -1.1305  0.2997
    1PDL    H47   47   2.191   2.886   1.347  0.8023 -0.4824 -3.0152
    1PDL    H48   48   1.443   2.146   1.368  0.7701  0.3031  0.2658
    1PDL    H49   49   1.507   2.064   1.520  0.8399 -0.0704 -1.6203
    1PDL    H50   50   1.333   2.091   1.482 -0.0644  0.2823  0.4574
    1PDL    H51   51   1.884   2.885   1.725  2.9518 -0.5110  0.4559
    1PDL    H52   52   1.765   2.756   1.708  0.3686 -2.9536 -0.8689
    1PDL    H53   53   1.901   2.732   1.821 -0.4474  0.7365  0.5662
    1PDL    H54   54   1.619   2.852   1.536 -0.5489 -1.9704 -0.2992
    1PDL    H55   55   1.782   3.036   1.488  2.6810 -0.7450  0.4632
    1PDL    H56   56   1.938   2.795   1.168  0.1546 -0.4986 -0.6783
    1PDL    H57   57   1.784   2.610   1.223 -2.6760  0.4255 -0.0848
    1PDL    H58   58   1.973   3.089   1.381  0.5250 -0.0013 -0.0267
    1PDL    H59   59   2.047   3.002   1.252 -0.4054 -0.0187  0.3377
    1PDL    H60   60   1.795   2.122   1.515  0.2082 -1.6439 -0.7689
    1PDL    H61   61   1.784   1.920   1.363 -1.4366 -0.2612  0.0918
    1PDL    H62   62   1.859   2.161   1.021  0.2201 -0.3179 -0.0119
    1PDL    H63   63   1.879   2.365   1.169  1.3752  0.3559  1.7683
    1PDL    H64   64   1.730   1.864   1.143  0.1382  0.0583 -0.1964
    1PDL    H65   65   1.811   1.929   1.006  0.0807 -0.1035 -0.0293
   3.52539   3.32377   2.87847   0.00000   0.00000   1.17513   0.00000  -1.17513   1.66188
