[ atomtypes ]
Pd   46   106.420   0.000   A   0.24500   0.21338
;name   bond_type     mass     charge   ptype   sigma         epsilon       Amb
 cc       cc          0.00000  0.00000   A     3.31521e-01   4.13379e-01 ; 1.86  0.0988
 c        c           0.00000  0.00000   A     3.31521e-01   4.13379e-01 ; 1.86  0.0988
 n1       n1          0.00000  0.00000   A     3.27352e-01   4.59403e-01 ; 1.84  0.1098
 nf       nf          0.00000  0.00000   A     3.38417e-01   3.93714e-01 ; 1.90  0.0941
 n        n           0.00000  0.00000   A     3.18086e-01   6.84502e-01 ; 1.79  0.1636
 o        o           0.00000  0.00000   A     3.04812e-01   6.12119e-01 ; 1.71  0.1463
 n2       n2          0.00000  0.00000   A     3.38417e-01   3.93714e-01 ; 1.90  0.0941
 c3       c3          0.00000  0.00000   A     3.39771e-01   4.51035e-01 ; 1.91  0.1078
 ca       ca          0.00000  0.00000   A     3.31521e-01   4.13379e-01 ; 1.86  0.0988
 nv       nv          0.00000  0.00000   A     3.36813e-01   4.68608e-01 ; 1.89  0.1120
 h1       h1          0.00000  0.00000   A     2.42200e-01   8.70272e-02 ; 1.36  0.0208
 ha       ha          0.00000  0.00000   A     2.62548e-01   6.73624e-02 ; 1.47  0.0161
 hn       hn          0.00000  0.00000   A     1.10650e-01   4.18400e-02 ; 0.62  0.0100

[ moleculetype ]
PDL   3

[ atoms ]
     1 Pd    1  PDL  PD         1   0.118388  106.420
     2 cc    1  PDL  C2         2   0.357772   12.010
     3 cc    1  PDL  C3         3   0.354616   12.010
     4 c     1  PDL  C4         4   0.392283   12.010
     5 c     1  PDL  C5         5   0.420136   12.010
     6 cc    1  PDL  C6         6   0.013654   12.010
     7 cc    1  PDL  C7         7   0.009395   12.010
     8 n1    1  PDL  N8         8  -0.541894   14.010
     9 n1    1  PDL  N9         9  -0.541309   14.010
    10 nf    1  PDL  N10       10  -0.236915   14.010
    11 nf    1  PDL  N11       11  -0.238728   14.010
    12 n     1  PDL  N12       12  -0.205938   14.010
    13 n     1  PDL  N13       13  -0.197914   14.010
    14 n     1  PDL  N14       14  -0.157725   14.010
    15 n     1  PDL  N15       15  -0.158089   14.010
    16 o     1  PDL  O16       16  -0.472153    1.008
    17 o     1  PDL  O17       17  -0.450871    1.008
    18 o     1  PDL  O18       18  -0.442534    1.008
    19 o     1  PDL  O19       19  -0.458459    1.008
    20 n2    1  PDL  N20       20   0.262379   14.010
    21 n2    1  PDL  N21       21   0.261744   14.010
    22 c     1  PDL  C22       22   0.468625   12.010
    23 c     1  PDL  C23       23   0.440861   12.010
    24 c3    1  PDL  C24       24  -0.001912   12.010
    25 c3    1  PDL  C25       25  -0.044299   12.010
    26 c3    1  PDL  C26       26  -0.013605   12.010
    27 c3    1  PDL  C27       27   0.009884   12.010
    28 ca    1  PDL  C28       28  -0.066999   12.010
    29 ca    1  PDL  C29       29   0.024931   12.010
    30 ca    1  PDL  C30       30  -0.299901   12.010
    31 ca    1  PDL  C31       31   0.422515   12.010
    32 ca    1  PDL  C32       32  -0.243405   12.010
    33 ca    1  PDL  C33       33  -0.080246   12.010
    34 nv    1  PDL  N34       34  -0.789215   14.010
    35 ca    1  PDL  C35       35  -0.064483   12.010
    36 ca    1  PDL  C36       36  -0.080481   12.010
    37 ca    1  PDL  C37       37  -0.244449   12.010
    38 ca    1  PDL  C38       38   0.421214   12.010
    39 ca    1  PDL  C39       39  -0.296178   12.010
    40 ca    1  PDL  C40       40   0.021053   12.010
    41 nv    1  PDL  N41       41  -0.790051   14.010
    42 h1    1  PDL  H42       42   0.049127    1.008
    43 h1    1  PDL  H43       43   0.049127    1.008
    44 h1    1  PDL  H44       44   0.049127    1.008
    45 h1    1  PDL  H45       45   0.060901    1.008
    46 h1    1  PDL  H46       46   0.060901    1.008
    47 h1    1  PDL  H47       47   0.060901    1.008
    48 h1    1  PDL  H48       48   0.049307    1.008
    49 h1    1  PDL  H49       49   0.049307    1.008
    50 h1    1  PDL  H50       50   0.049307    1.008
    51 h1    1  PDL  H51       51   0.042136    1.008
    52 h1    1  PDL  H52       52   0.042136    1.008
    53 h1    1  PDL  H53       53   0.042136    1.008
    54 ha    1  PDL  H54       54   0.081932    1.008
    55 ha    1  PDL  H55       55   0.153264    1.008
    56 ha    1  PDL  H56       56   0.136459    1.008
    57 ha    1  PDL  H57       57   0.130934    1.008
    58 hn    1  PDL  H58       58   0.378171   14.010
    59 hn    1  PDL  H59       59   0.373932   14.010
    60 ha    1  PDL  H60       60   0.131023    1.008
    61 ha    1  PDL  H61       61   0.137372    1.008
    62 ha    1  PDL  H62       62   0.152260    1.008
    63 ha    1  PDL  H63       63   0.085114    1.008
    64 hn    1  PDL  H64       64   0.374994   14.010
    65 hn    1  PDL  H65       65   0.378437   14.010

[ bonds ]
1 8 1 0.20131 250000
1 9 1 0.20146 250000
1 20 1 0.20297 250000
1 21 1 0.20299 250000
  2  6  1  1.4274e-01  2.6947e+05  ;  C  -  C4
  2  8  1  1.3179e-01  3.4861e+05  ;  C  -  N
  2  12  1  1.3837e-01  2.7753e+05  ;  C  -  N4
  3  7  1  1.4274e-01  2.6947e+05  ;  C1  -  C5
  3  9  1  1.3179e-01  3.4861e+05  ;  C1  -  N1
  3  13  1  1.3837e-01  2.7753e+05  ;  C1  -  N5
  4  6  1  1.4687e-01  2.3579e+05  ;  C2  -  C4
  4  14  1  1.3967e-01  2.6565e+05  ;  C2  -  N6
  4  18  1  1.2190e-01  4.9421e+05  ;  C2  -  O2
  5  7  1  1.4687e-01  2.3579e+05  ;  C3  -  C5
  5  15  1  1.3967e-01  2.6565e+05  ;  C3  -  N7
  5  19  1  1.2190e-01  4.9421e+05  ;  C3  -  O3
  6  10  1  1.2923e-01  3.8213e+05  ;  C4  -  N2
  7  11  1  1.2923e-01  3.8213e+05  ;  C5  -  N3
  10  20  1  1.2630e-01  3.4005e+05  ;  N2  -  N8
  11  21  1  1.2630e-01  3.4005e+05  ;  N3  -  N9
  12  22  1  1.3967e-01  2.6565e+05  ;  N4  -  C6
  12  26  1  1.4643e-01  2.1293e+05  ;  N4  -  C10
  13  23  1  1.3967e-01  2.6565e+05  ;  N5  -  C7
  13  27  1  1.4643e-01  2.1293e+05  ;  N5  -  C11
  14  22  1  1.3967e-01  2.6565e+05  ;  N6  -  C6
  14  24  1  1.4643e-01  2.1293e+05  ;  N6  -  C8
  15  23  1  1.3967e-01  2.6565e+05  ;  N7  -  C7
  15  25  1  1.4643e-01  2.1293e+05  ;  N7  -  C9
  16  22  1  1.2190e-01  4.9421e+05  ;  O  -  C6
  17  23  1  1.2190e-01  4.9421e+05  ;  O1  -  C7
  20  28  1  1.3484e-01  3.1321e+05  ;  N8  -  C12
  21  35  1  1.3484e-01  3.1321e+05  ;  N9  -  C18
  24  42  1  1.0969e-01  2.8804e+05  ;  C8  -  H
  24  43  1  1.0969e-01  2.8804e+05  ;  C8  -  H1
  24  44  1  1.0969e-01  2.8804e+05  ;  C8  -  H2
  25  45  1  1.0969e-01  2.8804e+05  ;  C9  -  H3
  25  46  1  1.0969e-01  2.8804e+05  ;  C9  -  H4
  25  47  1  1.0969e-01  2.8804e+05  ;  C9  -  H5
  26  48  1  1.0969e-01  2.8804e+05  ;  C10  -  H6
  26  49  1  1.0969e-01  2.8804e+05  ;  C10  -  H7
  26  50  1  1.0969e-01  2.8804e+05  ;  C10  -  H8
  27  51  1  1.0969e-01  2.8804e+05  ;  C11  -  H9
  27  52  1  1.0969e-01  2.8804e+05  ;  C11  -  H10
  27  53  1  1.0969e-01  2.8804e+05  ;  C11  -  H11
  28  29  1  1.3986e-01  2.9644e+05  ;  C12  -  C13
  28  33  1  1.3986e-01  2.9644e+05  ;  C12  -  C17
  29  30  1  1.3986e-01  2.9644e+05  ;  C13  -  C14
  29  54  1  1.0860e-01  3.0183e+05  ;  C13  -  H12
  30  31  1  1.3986e-01  2.9644e+05  ;  C14  -  C15
  30  55  1  1.0860e-01  3.0183e+05  ;  C14  -  H13
  31  32  1  1.3986e-01  2.9644e+05  ;  C15  -  C16
  31  34  1  1.3744e-01  2.8644e+05  ;  C15  -  N10
  32  33  1  1.3986e-01  2.9644e+05  ;  C16  -  C17
  32  56  1  1.0860e-01  3.0183e+05  ;  C16  -  H14
  33  57  1  1.0860e-01  3.0183e+05  ;  C17  -  H15
  34  58  1  1.0114e-01  3.9961e+05  ;  N10  -  H16
  34  59  1  1.0114e-01  3.9961e+05  ;  N10  -  H17
  35  36  1  1.3986e-01  2.9644e+05  ;  C18  -  C19
  35  40  1  1.3986e-01  2.9644e+05  ;  C18  -  C23
  36  37  1  1.3986e-01  2.9644e+05  ;  C19  -  C20
  36  60  1  1.0860e-01  3.0183e+05  ;  C19  -  H18
  37  38  1  1.3986e-01  2.9644e+05  ;  C20  -  C21
  37  61  1  1.0860e-01  3.0183e+05  ;  C20  -  H19
  38  39  1  1.3986e-01  2.9644e+05  ;  C21  -  C22
  38  41  1  1.3744e-01  2.8644e+05  ;  C21  -  N11
  39  40  1  1.3986e-01  2.9644e+05  ;  C22  -  C23
  39  62  1  1.0860e-01  3.0183e+05  ;  C22  -  H20
  40  63  1  1.0860e-01  3.0183e+05  ;  C23  -  H21
  41  64  1  1.0114e-01  3.9961e+05  ;  N11  -  H22
  41  65  1  1.0114e-01  3.9961e+05  ;  N11  -  H23

[ pairs ]
  2  14  1  ;  C  -  N6
  2  16  1  ;  C  -  O
  2  18  1  ;  C  -  O2
  2  20  1  ;  C  -  N8
  2  48  1  ;  C  -  H6
  2  49  1  ;  C  -  H7
  2  50  1  ;  C  -  H8
  3  15  1  ;  C1  -  N7
  3  17  1  ;  C1  -  O1
  3  19  1  ;  C1  -  O3
  3  21  1  ;  C1  -  N9
  3  51  1  ;  C1  -  H9
  3  52  1  ;  C1  -  H10
  3  53  1  ;  C1  -  H11
  4  16  1  ;  C2  -  O
  4  20  1  ;  C2  -  N8
  4  42  1  ;  C2  -  H
  4  43  1  ;  C2  -  H1
  4  44  1  ;  C2  -  H2
  5  9  1  ;  C3  -  N1
  5  13  1  ;  C3  -  N5
  5  17  1  ;  C3  -  O1
  5  21  1  ;  C3  -  N9
  5  45  1  ;  C3  -  H3
  5  46  1  ;  C3  -  H4
  5  47  1  ;  C3  -  H5
  6  22  1  ;  C4  -  C6
  6  24  1  ;  C4  -  C8
  6  26  1  ;  C4  -  C10
  6  28  1  ;  C4  -  C12
  7  23  1  ;  C5  -  C7
  7  25  1  ;  C5  -  C9
  7  27  1  ;  C5  -  C11
  7  35  1  ;  C5  -  C18
  8  4  1  ;  N  -  C2
  8  10  1  ;  N  -  N2
  8  22  1  ;  N  -  C6
  8  26  1  ;  N  -  C10
  9  11  1  ;  N1  -  N3
  9  23  1  ;  N1  -  C7
  9  27  1  ;  N1  -  C11
  10  14  1  ;  N2  -  N6
  10  18  1  ;  N2  -  O2
  10  29  1  ;  N2  -  C13
  10  33  1  ;  N2  -  C17
  11  13  1  ;  N3  -  N5
  11  15  1  ;  N3  -  N7
  11  19  1  ;  N3  -  O3
  11  36  1  ;  N3  -  C19
  11  40  1  ;  N3  -  C23
  12  4  1  ;  N4  -  C2
  12  10  1  ;  N4  -  N2
  12  24  1  ;  N4  -  C8
  13  25  1  ;  N5  -  C9
  14  26  1  ;  N6  -  C10
  15  27  1  ;  N7  -  C11
  16  24  1  ;  O  -  C8
  16  26  1  ;  O  -  C10
  17  25  1  ;  O1  -  C9
  17  27  1  ;  O1  -  C11
  18  22  1  ;  O2  -  C6
  18  24  1  ;  O2  -  C8
  19  23  1  ;  O3  -  C7
  19  25  1  ;  O3  -  C9
  20  30  1  ;  N8  -  C14
  20  32  1  ;  N8  -  C16
  20  54  1  ;  N8  -  H12
  20  57  1  ;  N8  -  H15
  21  37  1  ;  N9  -  C20
  21  39  1  ;  N9  -  C22
  21  60  1  ;  N9  -  H18
  21  63  1  ;  N9  -  H21
  22  42  1  ;  C6  -  H
  22  43  1  ;  C6  -  H1
  22  44  1  ;  C6  -  H2
  22  48  1  ;  C6  -  H6
  22  49  1  ;  C6  -  H7
  22  50  1  ;  C6  -  H8
  23  45  1  ;  C7  -  H3
  23  46  1  ;  C7  -  H4
  23  47  1  ;  C7  -  H5
  23  51  1  ;  C7  -  H9
  23  52  1  ;  C7  -  H10
  23  53  1  ;  C7  -  H11
  28  31  1  ;  C12  -  C15
  28  55  1  ;  C12  -  H13
  28  56  1  ;  C12  -  H14
  29  32  1  ;  C13  -  C16
  29  34  1  ;  C13  -  N10
  29  57  1  ;  C13  -  H15
  30  33  1  ;  C14  -  C17
  30  56  1  ;  C14  -  H14
  30  58  1  ;  C14  -  H16
  30  59  1  ;  C14  -  H17
  31  54  1  ;  C15  -  H12
  31  57  1  ;  C15  -  H15
  32  55  1  ;  C16  -  H13
  32  58  1  ;  C16  -  H16
  32  59  1  ;  C16  -  H17
  33  34  1  ;  C17  -  N10
  33  54  1  ;  C17  -  H12
  34  55  1  ;  N10  -  H13
  34  56  1  ;  N10  -  H14
  35  38  1  ;  C18  -  C21
  35  61  1  ;  C18  -  H19
  35  62  1  ;  C18  -  H20
  36  39  1  ;  C19  -  C22
  36  41  1  ;  C19  -  N11
  36  63  1  ;  C19  -  H21
  37  40  1  ;  C20  -  C23
  37  62  1  ;  C20  -  H20
  37  64  1  ;  C20  -  H22
  37  65  1  ;  C20  -  H23
  38  60  1  ;  C21  -  H18
  38  63  1  ;  C21  -  H21
  39  61  1  ;  C22  -  H19
  39  64  1  ;  C22  -  H22
  39  65  1  ;  C22  -  H23
  40  41  1  ;  C23  -  N11
  40  60  1  ;  C23  -  H18
  41  61  1  ;  N11  -  H19
  41  62  1  ;  N11  -  H20
  54  55  1  ;  H12  -  H13
  56  57  1  ;  H14  -  H15
  60  61  1  ;  H18  -  H19
  62  63  1  ;  H20  -  H21

[ angles ]
  2  6  4  1  1.2143e+02  5.1145e+02  ;  C  -  C4  -  C2
  2  6  10  1  1.2168e+02  5.7488e+02  ;  C  -  C4  -  N2
  2  12  22  1  1.2161e+02  6.5806e+02  ;  C  -  N4  -  C6
  2  12  26  1  1.2174e+02  6.4116e+02  ;  C  -  N4  -  C10
  3  7  5  1  1.2143e+02  5.1145e+02  ;  C1  -  C5  -  C3
  3  7  11  1  1.2168e+02  5.7488e+02  ;  C1  -  C5  -  N3
  3  13  23  1  1.2161e+02  6.5806e+02  ;  C1  -  N5  -  C7
  3  13  27  1  1.2174e+02  6.4116e+02  ;  C1  -  N5  -  C11
  4  6  10  1  1.2572e+02  5.5530e+02  ;  C2  -  C4  -  N2
  4  14  22  1  1.2521e+02  6.4559e+02  ;  C2  -  N6  -  C6
  4  14  24  1  1.1883e+02  6.4634e+02  ;  C2  -  N6  -  C8
  5  7  11  1  1.2572e+02  5.5530e+02  ;  C3  -  C5  -  N3
  5  15  23  1  1.2521e+02  6.4559e+02  ;  C3  -  N7  -  C7
  5  15  25  1  1.1883e+02  6.4634e+02  ;  C3  -  N7  -  C9
  6  2  8  1  1.2121e+02  5.7162e+02  ;  C4  -  C  -  N
  6  2  12  1  1.1469e+02  5.7547e+02  ;  C4  -  C  -  N4
  6  4  14  1  1.1269e+02  5.6911e+02  ;  C4  -  C2  -  N6
  6  4  18  1  1.2406e+02  6.5572e+02  ;  C4  -  C2  -  O2
  6  10  20  1  1.1313e+02  7.5931e+02  ;  C4  -  N2  -  N8
  7  3  9  1  1.2121e+02  5.7162e+02  ;  C5  -  C1  -  N1
  7  3  13  1  1.1469e+02  5.7547e+02  ;  C5  -  C1  -  N5
  7  5  15  1  1.1269e+02  5.6911e+02  ;  C5  -  C3  -  N7
  7  5  19  1  1.2406e+02  6.5572e+02  ;  C5  -  C3  -  O3
  7  11  21  1  1.1313e+02  7.5931e+02  ;  C5  -  N3  -  N9
  8  2  12  1  1.1901e+02  6.1520e+02  ;  N  -  C  -  N4
  9  3  13  1  1.1901e+02  6.1520e+02  ;  N1  -  C1  -  N5
  10  20  28  1  1.1353e+02  7.8073e+02  ;  N2  -  N8  -  C12
  11  21  35  1  1.1353e+02  7.8073e+02  ;  N3  -  N9  -  C18
  12  22  14  1  1.1617e+02  6.1112e+02  ;  N4  -  C6  -  N6
  12  22  16  1  1.2257e+02  7.2534e+02  ;  N4  -  C6  -  O
  12  26  48  1  1.0876e+02  4.0242e+02  ;  N4  -  C10  -  H6
  12  26  49  1  1.0876e+02  4.0242e+02  ;  N4  -  C10  -  H7
  12  26  50  1  1.0876e+02  4.0242e+02  ;  N4  -  C10  -  H8
  13  23  15  1  1.1617e+02  6.1112e+02  ;  N5  -  C7  -  N7
  13  23  17  1  1.2257e+02  7.2534e+02  ;  N5  -  C7  -  O1
  13  27  51  1  1.0876e+02  4.0242e+02  ;  N5  -  C11  -  H9
  13  27  52  1  1.0876e+02  4.0242e+02  ;  N5  -  C11  -  H10
  13  27  53  1  1.0876e+02  4.0242e+02  ;  N5  -  C11  -  H11
  14  4  18  1  1.2257e+02  7.2534e+02  ;  N6  -  C2  -  O2
  14  22  16  1  1.2257e+02  7.2534e+02  ;  N6  -  C6  -  O
  14  24  42  1  1.0876e+02  4.0242e+02  ;  N6  -  C8  -  H
  14  24  43  1  1.0876e+02  4.0242e+02  ;  N6  -  C8  -  H1
  14  24  44  1  1.0876e+02  4.0242e+02  ;  N6  -  C8  -  H2
  15  5  19  1  1.2257e+02  7.2534e+02  ;  N7  -  C3  -  O3
  15  23  17  1  1.2257e+02  7.2534e+02  ;  N7  -  C7  -  O1
  15  25  45  1  1.0876e+02  4.0242e+02  ;  N7  -  C9  -  H3
  15  25  46  1  1.0876e+02  4.0242e+02  ;  N7  -  C9  -  H4
  15  25  47  1  1.0876e+02  4.0242e+02  ;  N7  -  C9  -  H5
  20  28  29  1  1.2029e+02  5.7488e+02  ;  N8  -  C12  -  C13
  20  28  33  1  1.2029e+02  5.7488e+02  ;  N8  -  C12  -  C17
  21  35  36  1  1.2029e+02  5.7488e+02  ;  N9  -  C18  -  C19
  21  35  40  1  1.2029e+02  5.7488e+02  ;  N9  -  C18  -  C23
  22  12  26  1  1.1883e+02  6.4634e+02  ;  C6  -  N4  -  C10
  22  14  24  1  1.1883e+02  6.4634e+02  ;  C6  -  N6  -  C8
  23  13  27  1  1.1883e+02  6.4634e+02  ;  C7  -  N5  -  C11
  23  15  25  1  1.1883e+02  6.4634e+02  ;  C7  -  N7  -  C9
  28  29  30  1  1.2002e+02  5.3279e+02  ;  C12  -  C13  -  C14
  28  29  54  1  1.1988e+02  3.7572e+02  ;  C12  -  C13  -  H12
  28  33  32  1  1.2002e+02  5.3279e+02  ;  C12  -  C17  -  C16
  28  33  57  1  1.1988e+02  3.7572e+02  ;  C12  -  C17  -  H15
  29  28  33  1  1.2002e+02  5.3279e+02  ;  C13  -  C12  -  C17
  29  30  31  1  1.2002e+02  5.3279e+02  ;  C13  -  C14  -  C15
  29  30  55  1  1.1988e+02  3.7572e+02  ;  C13  -  C14  -  H13
  30  29  54  1  1.1988e+02  3.7572e+02  ;  C14  -  C13  -  H12
  30  31  32  1  1.2002e+02  5.3279e+02  ;  C14  -  C15  -  C16
  30  31  34  1  1.2094e+02  5.6827e+02  ;  C14  -  C15  -  N10
  31  30  55  1  1.1988e+02  3.7572e+02  ;  C15  -  C14  -  H13
  31  32  33  1  1.2002e+02  5.3279e+02  ;  C15  -  C16  -  C17
  31  32  56  1  1.1988e+02  3.7572e+02  ;  C15  -  C16  -  H14
  31  34  58  1  1.1673e+02  4.8292e+02  ;  C15  -  N10  -  H16
  31  34  59  1  1.1673e+02  4.8292e+02  ;  C15  -  N10  -  H17
  32  31  34  1  1.2094e+02  5.6827e+02  ;  C16  -  C15  -  N10
  32  33  57  1  1.1988e+02  3.7572e+02  ;  C16  -  C17  -  H15
  33  32  56  1  1.1988e+02  3.7572e+02  ;  C17  -  C16  -  H14
  35  36  37  1  1.2002e+02  5.3279e+02  ;  C18  -  C19  -  C20
  35  36  60  1  1.1988e+02  3.7572e+02  ;  C18  -  C19  -  H18
  35  40  39  1  1.2002e+02  5.3279e+02  ;  C18  -  C23  -  C22
  35  40  63  1  1.1988e+02  3.7572e+02  ;  C18  -  C23  -  H21
  36  35  40  1  1.2002e+02  5.3279e+02  ;  C19  -  C18  -  C23
  36  37  38  1  1.2002e+02  5.3279e+02  ;  C19  -  C20  -  C21
  36  37  61  1  1.1988e+02  3.7572e+02  ;  C19  -  C20  -  H19
  37  36  60  1  1.1988e+02  3.7572e+02  ;  C20  -  C19  -  H18
  37  38  39  1  1.2002e+02  5.3279e+02  ;  C20  -  C21  -  C22
  37  38  41  1  1.2094e+02  5.6827e+02  ;  C20  -  C21  -  N11
  38  37  61  1  1.1988e+02  3.7572e+02  ;  C21  -  C20  -  H19
  38  39  40  1  1.2002e+02  5.3279e+02  ;  C21  -  C22  -  C23
  38  39  62  1  1.1988e+02  3.7572e+02  ;  C21  -  C22  -  H20
  38  41  64  1  1.1673e+02  4.8292e+02  ;  C21  -  N11  -  H22
  38  41  65  1  1.1673e+02  4.8292e+02  ;  C21  -  N11  -  H23
  39  38  41  1  1.2094e+02  5.6827e+02  ;  C22  -  C21  -  N11
  39  40  63  1  1.1988e+02  3.7572e+02  ;  C22  -  C23  -  H21
  40  39  62  1  1.1988e+02  3.7572e+02  ;  C23  -  C22  -  H20
  42  24  43  1  1.0855e+02  2.9824e+02  ;  H  -  C8  -  H1
  42  24  44  1  1.0855e+02  2.9824e+02  ;  H  -  C8  -  H2
  43  24  44  1  1.0855e+02  2.9824e+02  ;  H1  -  C8  -  H2
  45  25  46  1  1.0855e+02  2.9824e+02  ;  H3  -  C9  -  H4
  45  25  47  1  1.0855e+02  2.9824e+02  ;  H3  -  C9  -  H5
  46  25  47  1  1.0855e+02  2.9824e+02  ;  H4  -  C9  -  H5
  48  26  49  1  1.0855e+02  2.9824e+02  ;  H6  -  C10  -  H7
  48  26  50  1  1.0855e+02  2.9824e+02  ;  H6  -  C10  -  H8
  49  26  50  1  1.0855e+02  2.9824e+02  ;  H7  -  C10  -  H8
  51  27  52  1  1.0855e+02  2.9824e+02  ;  H9  -  C11  -  H10
  51  27  53  1  1.0855e+02  2.9824e+02  ;  H9  -  C11  -  H11
  52  27  53  1  1.0855e+02  2.9824e+02  ;  H10  -  C11  -  H11
  58  34  59  1  1.1528e+02  3.8794e+02  ;  H16  -  N10  -  H17
  64  41  65  1  1.1528e+02  3.8794e+02  ;  H22  -  N11  -  H23

[ dihedrals ]
  2  6  4  14  9  180.00  12.02900  2  ;  C-  C4-  C2-  N6
  2  6  4  18  9  180.00  12.02900  2  ;  C-  C4-  C2-  O2
  2  6  10  20  9  180.00  3.34720  2  ;  C-  C4-  N2-  N8
  2  12  22  14  9  180.00  10.46000  2  ;  C-  N4-  C6-  N6
  2  12  22  16  9  180.00  10.46000  2  ;  C-  N4-  C6-  O
  2  12  26  48  9  0.00  0.00000  0  ;  C-  N4-  C10-  H6
  2  12  26  49  9  0.00  0.00000  0  ;  C-  N4-  C10-  H7
  2  12  26  50  9  0.00  0.00000  0  ;  C-  N4-  C10-  H8
  3  7  5  15  9  180.00  12.02900  2  ;  C1-  C5-  C3-  N7
  3  7  5  19  9  180.00  12.02900  2  ;  C1-  C5-  C3-  O3
  3  7  11  21  9  180.00  3.34720  2  ;  C1-  C5-  N3-  N9
  3  13  23  15  9  180.00  10.46000  2  ;  C1-  N5-  C7-  N7
  3  13  23  17  9  180.00  10.46000  2  ;  C1-  N5-  C7-  O1
  3  13  27  51  9  0.00  0.00000  0  ;  C1-  N5-  C11-  H9
  3  13  27  52  9  0.00  0.00000  0  ;  C1-  N5-  C11-  H10
  3  13  27  53  9  0.00  0.00000  0  ;  C1-  N5-  C11-  H11
  4  6  10  20  9  180.00  3.34720  2  ;  C2-  C4-  N2-  N8
  4  14  22  12  9  180.00  10.46000  2  ;  C2-  N6-  C6-  N4
  4  14  22  16  9  180.00  10.46000  2  ;  C2-  N6-  C6-  O
  4  14  24  42  9  180.00  0.00000  2  ;  C2-  N6-  C8-  H
  4  14  24  43  9  180.00  0.00000  2  ;  C2-  N6-  C8-  H1
  4  14  24  44  9  180.00  0.00000  2  ;  C2-  N6-  C8-  H2
  5  7  3  9  9  180.00  16.73600  2  ;  C3-  C5-  C1-  N1
  5  7  3  13  9  180.00  16.73600  2  ;  C3-  C5-  C1-  N5
  5  7  11  21  9  180.00  3.34720  2  ;  C3-  C5-  N3-  N9
  5  15  23  13  9  180.00  10.46000  2  ;  C3-  N7-  C7-  N5
  5  15  23  17  9  180.00  10.46000  2  ;  C3-  N7-  C7-  O1
  5  15  25  45  9  180.00  0.00000  2  ;  C3-  N7-  C9-  H3
  5  15  25  46  9  180.00  0.00000  2  ;  C3-  N7-  C9-  H4
  5  15  25  47  9  180.00  0.00000  2  ;  C3-  N7-  C9-  H5
  6  2  12  22  9  180.00  6.90360  2  ;  C4-  C-  N4-  C6
  6  2  12  26  9  180.00  6.90360  2  ;  C4-  C-  N4-  C10
  6  4  14  22  9  180.00  10.46000  2  ;  C4-  C2-  N6-  C6
  6  4  14  24  9  180.00  10.46000  2  ;  C4-  C2-  N6-  C8
  6  10  20  28  9  0.00  11.71520  1  ;  C4-  N2-  N8-  C12
  6  10  20  28  9  180.00  12.55200  2  ;  C4-  N2-  N8-  C12
  7  3  13  23  9  180.00  6.90360  2  ;  C5-  C1-  N5-  C7
  7  3  13  27  9  180.00  6.90360  2  ;  C5-  C1-  N5-  C11
  7  5  15  23  9  180.00  10.46000  2  ;  C5-  C3-  N7-  C7
  7  5  15  25  9  180.00  10.46000  2  ;  C5-  C3-  N7-  C9
  7  11  21  35  9  0.00  11.71520  1  ;  C5-  N3-  N9-  C18
  7  11  21  35  9  180.00  12.55200  2  ;  C5-  N3-  N9-  C18
  8  2  6  4  9  180.00  16.73600  2  ;  N-  C-  C4-  C2
  8  2  6  10  9  180.00  16.73600  2  ;  N-  C-  C4-  N2
  8  2  12  22  9  180.00  6.90360  2  ;  N-  C-  N4-  C6
  8  2  12  26  9  180.00  6.90360  2  ;  N-  C-  N4-  C10
  9  3  7  11  9  180.00  16.73600  2  ;  N1-  C1-  C5-  N3
  9  3  13  23  9  180.00  6.90360  2  ;  N1-  C1-  N5-  C7
  9  3  13  27  9  180.00  6.90360  2  ;  N1-  C1-  N5-  C11
  10  6  4  14  9  180.00  12.02900  2  ;  N2-  C4-  C2-  N6
  10  6  4  18  9  180.00  12.02900  2  ;  N2-  C4-  C2-  O2
  10  20  28  29  9  180.00  0.00000  3  ;  N2-  N8-  C12-  C13
  10  20  28  33  9  180.00  0.00000  3  ;  N2-  N8-  C12-  C17
  11  7  3  13  9  180.00  16.73600  2  ;  N3-  C5-  C1-  N5
  11  7  5  15  9  180.00  12.02900  2  ;  N3-  C5-  C3-  N7
  11  7  5  19  9  180.00  12.02900  2  ;  N3-  C5-  C3-  O3
  11  21  35  36  9  180.00  0.00000  3  ;  N3-  N9-  C18-  C19
  11  21  35  40  9  180.00  0.00000  3  ;  N3-  N9-  C18-  C23
  12  2  6  4  9  180.00  16.73600  2  ;  N4-  C-  C4-  C2
  12  2  6  10  9  180.00  16.73600  2  ;  N4-  C-  C4-  N2
  12  22  14  24  9  180.00  10.46000  2  ;  N4-  C6-  N6-  C8
  13  23  15  25  9  180.00  10.46000  2  ;  N5-  C7-  N7-  C9
  14  22  12  26  9  180.00  10.46000  2  ;  N6-  C6-  N4-  C10
  15  23  13  27  9  180.00  10.46000  2  ;  N7-  C7-  N5-  C11
  16  22  12  26  9  180.00  10.46000  2  ;  O-  C6-  N4-  C10
  16  22  14  24  9  180.00  10.46000  2  ;  O-  C6-  N6-  C8
  17  23  13  27  9  180.00  10.46000  2  ;  O1-  C7-  N5-  C11
  17  23  15  25  9  180.00  10.46000  2  ;  O1-  C7-  N7-  C9
  18  4  14  22  9  180.00  10.46000  2  ;  O2-  C2-  N6-  C6
  18  4  14  24  9  180.00  10.46000  2  ;  O2-  C2-  N6-  C8
  19  5  15  23  9  180.00  10.46000  2  ;  O3-  C3-  N7-  C7
  19  5  15  25  9  180.00  10.46000  2  ;  O3-  C3-  N7-  C9
  20  28  29  30  9  180.00  15.16700  2  ;  N8-  C12-  C13-  C14
  20  28  29  54  9  180.00  15.16700  2  ;  N8-  C12-  C13-  H12
  20  28  33  32  9  180.00  15.16700  2  ;  N8-  C12-  C17-  C16
  20  28  33  57  9  180.00  15.16700  2  ;  N8-  C12-  C17-  H15
  21  35  36  37  9  180.00  15.16700  2  ;  N9-  C18-  C19-  C20
  21  35  36  60  9  180.00  15.16700  2  ;  N9-  C18-  C19-  H18
  21  35  40  39  9  180.00  15.16700  2  ;  N9-  C18-  C23-  C22
  21  35  40  63  9  180.00  15.16700  2  ;  N9-  C18-  C23-  H21
  22  12  26  48  9  180.00  0.00000  2  ;  C6-  N4-  C10-  H6
  22  12  26  49  9  180.00  0.00000  2  ;  C6-  N4-  C10-  H7
  22  12  26  50  9  180.00  0.00000  2  ;  C6-  N4-  C10-  H8
  22  14  24  42  9  180.00  0.00000  2  ;  C6-  N6-  C8-  H
  22  14  24  43  9  180.00  0.00000  2  ;  C6-  N6-  C8-  H1
  22  14  24  44  9  180.00  0.00000  2  ;  C6-  N6-  C8-  H2
  23  13  27  51  9  180.00  0.00000  2  ;  C7-  N5-  C11-  H9
  23  13  27  52  9  180.00  0.00000  2  ;  C7-  N5-  C11-  H10
  23  13  27  53  9  180.00  0.00000  2  ;  C7-  N5-  C11-  H11
  23  15  25  45  9  180.00  0.00000  2  ;  C7-  N7-  C9-  H3
  23  15  25  46  9  180.00  0.00000  2  ;  C7-  N7-  C9-  H4
  23  15  25  47  9  180.00  0.00000  2  ;  C7-  N7-  C9-  H5
  28  29  30  31  9  180.00  15.16700  2  ;  C12-  C13-  C14-  C15
  28  29  30  55  9  180.00  15.16700  2  ;  C12-  C13-  C14-  H13
  28  33  32  31  9  180.00  15.16700  2  ;  C12-  C17-  C16-  C15
  28  33  32  56  9  180.00  15.16700  2  ;  C12-  C17-  C16-  H14
  29  28  33  32  9  180.00  15.16700  2  ;  C13-  C12-  C17-  C16
  29  28  33  57  9  180.00  15.16700  2  ;  C13-  C12-  C17-  H15
  29  30  31  32  9  180.00  15.16700  2  ;  C13-  C14-  C15-  C16
  29  30  31  34  9  180.00  15.16700  2  ;  C13-  C14-  C15-  N10
  30  29  28  33  9  180.00  15.16700  2  ;  C14-  C13-  C12-  C17
  30  31  32  33  9  180.00  15.16700  2  ;  C14-  C15-  C16-  C17
  30  31  32  56  9  180.00  15.16700  2  ;  C14-  C15-  C16-  H14
  30  31  34  58  9  180.00  4.39320  2  ;  C14-  C15-  N10-  H16
  30  31  34  59  9  180.00  4.39320  2  ;  C14-  C15-  N10-  H17
  31  30  29  54  9  180.00  15.16700  2  ;  C15-  C14-  C13-  H12
  31  32  33  57  9  180.00  15.16700  2  ;  C15-  C16-  C17-  H15
  32  31  30  55  9  180.00  15.16700  2  ;  C16-  C15-  C14-  H13
  32  31  34  58  9  180.00  4.39320  2  ;  C16-  C15-  N10-  H16
  32  31  34  59  9  180.00  4.39320  2  ;  C16-  C15-  N10-  H17
  33  28  29  54  9  180.00  15.16700  2  ;  C17-  C12-  C13-  H12
  33  32  31  34  9  180.00  15.16700  2  ;  C17-  C16-  C15-  N10
  34  31  30  55  9  180.00  15.16700  2  ;  N10-  C15-  C14-  H13
  34  31  32  56  9  180.00  15.16700  2  ;  N10-  C15-  C16-  H14
  35  36  37  38  9  180.00  15.16700  2  ;  C18-  C19-  C20-  C21
  35  36  37  61  9  180.00  15.16700  2  ;  C18-  C19-  C20-  H19
  35  40  39  38  9  180.00  15.16700  2  ;  C18-  C23-  C22-  C21
  35  40  39  62  9  180.00  15.16700  2  ;  C18-  C23-  C22-  H20
  36  35  40  39  9  180.00  15.16700  2  ;  C19-  C18-  C23-  C22
  36  35  40  63  9  180.00  15.16700  2  ;  C19-  C18-  C23-  H21
  36  37  38  39  9  180.00  15.16700  2  ;  C19-  C20-  C21-  C22
  36  37  38  41  9  180.00  15.16700  2  ;  C19-  C20-  C21-  N11
  37  36  35  40  9  180.00  15.16700  2  ;  C20-  C19-  C18-  C23
  37  38  39  40  9  180.00  15.16700  2  ;  C20-  C21-  C22-  C23
  37  38  39  62  9  180.00  15.16700  2  ;  C20-  C21-  C22-  H20
  37  38  41  64  9  180.00  4.39320  2  ;  C20-  C21-  N11-  H22
  37  38  41  65  9  180.00  4.39320  2  ;  C20-  C21-  N11-  H23
  38  37  36  60  9  180.00  15.16700  2  ;  C21-  C20-  C19-  H18
  38  39  40  63  9  180.00  15.16700  2  ;  C21-  C22-  C23-  H21
  39  38  37  61  9  180.00  15.16700  2  ;  C22-  C21-  C20-  H19
  39  38  41  64  9  180.00  4.39320  2  ;  C22-  C21-  N11-  H22
  39  38  41  65  9  180.00  4.39320  2  ;  C22-  C21-  N11-  H23
  40  35  36  60  9  180.00  15.16700  2  ;  C23-  C18-  C19-  H18
  40  39  38  41  9  180.00  15.16700  2  ;  C23-  C22-  C21-  N11
  41  38  37  61  9  180.00  15.16700  2  ;  N11-  C21-  C20-  H19
  41  38  39  62  9  180.00  15.16700  2  ;  N11-  C21-  C22-  H20
  54  29  30  55  9  180.00  15.16700  2  ;  H12-  C13-  C14-  H13
  56  32  33  57  9  180.00  15.16700  2  ;  H14-  C16-  C17-  H15
  60  36  37  61  9  180.00  15.16700  2  ;  H18-  C19-  C20-  H19
  62  39  40  63  9  180.00  15.16700  2  ;  H20-  C22-  C23-  H21
