PDL optimized complex
65
    1PDL     PD    1   0.000   0.000  -0.000
    1PDL     C2    2  -0.282  -0.037   0.044
    1PDL     C3    3   0.282   0.037  -0.044
    1PDL     C4    4  -0.399  -0.243  -0.057
    1PDL     C5    5   0.399   0.242   0.056
    1PDL     C6    6  -0.275  -0.171  -0.015
    1PDL     C7    7   0.275   0.171   0.014
    1PDL     N8    8  -0.183   0.041   0.068
    1PDL     N9    9   0.183  -0.041  -0.068
    1PDL    N10   10  -0.166  -0.242  -0.026
    1PDL    N11   11   0.166   0.242   0.025
    1PDL    N12   12  -0.412   0.004   0.086
    1PDL    N13   13   0.413  -0.004  -0.086
    1PDL    N14   14  -0.518  -0.180  -0.021
    1PDL    N15   15   0.518   0.180   0.022
    1PDL    O16   16  -0.640  -0.020   0.084
    1PDL    O17   17   0.640   0.017  -0.084
    1PDL    O18   18  -0.396  -0.347  -0.119
    1PDL    O19   19   0.399   0.347   0.117
    1PDL    N20   20  -0.047  -0.197   0.002
    1PDL    N21   21   0.047   0.197  -0.003
    1PDL    C22   22  -0.530  -0.062   0.053
    1PDL    C23   23   0.531   0.060  -0.052
    1PDL    C24   24  -0.644  -0.244  -0.059
    1PDL    C25   25   0.641   0.248   0.063
    1PDL    C26   26  -0.422   0.127   0.163
    1PDL    C27   27   0.422  -0.127  -0.164
    1PDL    C28   28   0.048  -0.298   0.018
    1PDL    C29   29   0.029  -0.427  -0.039
    1PDL    C30   30   0.124  -0.526  -0.022
    1PDL    C31   31   0.242  -0.502   0.054
    1PDL    C32   32   0.259  -0.375   0.113
    1PDL    C33   33   0.165  -0.275   0.094
    1PDL    N34   34   0.334  -0.601   0.071
    1PDL    C35   35  -0.048   0.298  -0.018
    1PDL    C36   36  -0.165   0.275  -0.094
    1PDL    C37   37  -0.259   0.374  -0.113
    1PDL    C38   38  -0.242   0.502  -0.054
    1PDL    C39   39  -0.124   0.526   0.022
    1PDL    C40   40  -0.029   0.427   0.038
    1PDL    N41   41  -0.335   0.601  -0.071
    1PDL    H42   42  -0.620  -0.333  -0.118
    1PDL    H43   43  -0.701  -0.272   0.031
    1PDL    H44   44  -0.706  -0.175  -0.117
    1PDL    H45   45   0.726   0.187   0.031
    1PDL    H46   46   0.646   0.348   0.017
    1PDL    H47   47   0.641   0.262   0.172
    1PDL    H48   48  -0.354   0.122   0.250
    1PDL    H49   49  -0.392   0.214   0.103
    1PDL    H50   50  -0.526   0.138   0.196
    1PDL    H51   51   0.526  -0.138  -0.197
    1PDL    H52   52   0.392  -0.214  -0.103
    1PDL    H53   53   0.353  -0.122  -0.249
    1PDL    H54   54  -0.061  -0.446  -0.096
    1PDL    H55   55   0.109  -0.624  -0.069
    1PDL    H56   56   0.347  -0.355   0.175
    1PDL    H57   57   0.177  -0.178   0.143
    1PDL    H58   58   0.324  -0.690   0.025
    1PDL    H59   59   0.422  -0.582   0.118
    1PDL    H60   60  -0.177   0.178  -0.143
    1PDL    H61   61  -0.347   0.355  -0.174
    1PDL    H62   62  -0.109   0.624   0.068
    1PDL    H63   63   0.062   0.446   0.096
    1PDL    H64   64  -0.422   0.582  -0.118
    1PDL    H65   65  -0.324   0.690  -0.025
  10.00000  10.00000  10.00000
