;;
;; Generated by CHARMM-GUI FF-Converter
;;
;; Correspondance:
;; jul316@lehigh.edu or wonpil@lehigh.edu
;;
;; The main GROMACS topology file
;;

; Include forcefield parameters
#include "toppar/forcefield.itp"
#include "toppar/POPE.itp"
#include "toppar/PMPE.itp"
#include "toppar/PMPG.itp"
#include "toppar/PYPG.itp"
#include "toppar/QMPE.itp"
#include "toppar/PVCL2.itp"
#include "toppar/OYPE.itp"
#include "toppar/SOD.itp"
#include "toppar/CLA.itp"
#include "toppar/TIP3.itp"

[ system ]
; Name
Title

[ molecules ]
; Compound	#mols
POPE  	          52
PMPE  	         184
PMPG  	          40
PYPG  	          36
QMPE  	          48
PVCL2 	           8
OYPE  	          32
SOD   	         136
CLA   	          44
TIP3  	       16970
