;;
;; Generated by CHARMM-GUI (http://www.charmm-gui.org) v1.7
;;
;; psf2itp_mol.py
;;
;; Correspondance:
;; jul316@lehigh.edu or wonpil@lehigh.edu
;;
;; CHARMM36 FF in GROMACS format
;;


[ defaults ]
; nbfunc	comb-rule	gen-pairs	fudgeLJ	fudgeQQ
1	2	yes	1.0	1.0

[ atomtypes ]
; name	at.num	mass	charge	ptype	sigma	epsilon	;	sigma_14	epsilon_14
   CG2O1     6    12.0110      0.512     A    3.56359487256e-01    4.602400e-01 
  CG2R61     6    12.0110     -0.003     A    3.55005321205e-01    2.928800e-01 
   CG311     6    12.0110      0.063     A    3.56359487256e-01    1.338880e-01 ;   3.38541512893e-01    4.184000e-02 
   CG321     6    12.0110     -0.178     A    3.58141284692e-01    2.343040e-01 ;   3.38541512893e-01    4.184000e-02 
   CG324     6    12.0110      0.102     A    3.87540942391e-01    2.301200e-01 ;   3.38541512893e-01    4.184000e-02 
   CG331     6    12.0110     -0.268     A    3.65268474438e-01    3.263520e-01 ;   3.38541512893e-01    4.184000e-02 
    HGA1     1     1.0080      0.090     A    2.38760856462e-01    1.882800e-01 
    HGA2     1     1.0080      0.090     A    2.38760856462e-01    1.464400e-01 
    HGA3     1     1.0080      0.090     A    2.38760856462e-01    1.004160e-01 
    HGP1     1     1.0080      0.316     A    4.00013524445e-02    1.924640e-01 
    HGP2     1     1.0080      0.328     A    4.00013524445e-02    1.924640e-01 
   HGR61     1     1.0080      0.116     A    2.42003727796e-01    1.255200e-01 
   NG2S1     7    14.0070     -0.469     A    3.29632525712e-01    8.368000e-01 ;   2.76178602624e-01    8.368000e-01 
   NG3P3     7    14.0070     -0.304     A    3.29632525712e-01    8.368000e-01 
   OG2D1     8    15.9994     -0.509     A    3.02905564168e-01    5.020800e-01 ;   2.49451641079e-01    5.020800e-01 
   OG311     8    15.9994     -0.651     A    3.14487247504e-01    8.037464e-01 

[ bondtypes ]
; i	j	func	b0	Kb
  CG2O1   CG2O1     1  1.484900e-01  1.849579e+05
  CG2O1  CG2R61     1  1.475000e-01  2.510400e+05
  CG2O1   CG311     1  1.490000e-01  2.092000e+05
  CG2O1   CG321     1  1.490000e-01  2.092000e+05
  CG2O1   CG324     1  1.490000e-01  2.092000e+05
  CG2O1   CG331     1  1.490000e-01  2.092000e+05
  CG2O1   NG2S1     1  1.345000e-01  3.096160e+05
  CG2O1   OG2D1     1  1.230000e-01  5.188160e+05
 CG2R61  CG2R61     1  1.375000e-01  2.552240e+05
 CG2R61   CG311     1  1.490000e-01  1.924640e+05
 CG2R61   CG321     1  1.490000e-01  1.924640e+05
 CG2R61   CG324     1  1.490000e-01  1.924640e+05
 CG2R61   CG331     1  1.490000e-01  1.924640e+05
 CG2R61   HGR61     1  1.080000e-01  2.845120e+05
 CG2R61   NG2S1     1  1.414000e-01  2.552240e+05
 CG2R61   OG311     1  1.411000e-01  2.797422e+05
  CG311   CG311     1  1.500000e-01  1.861880e+05
  CG311   CG321     1  1.538000e-01  1.861880e+05
  CG311   CG324     1  1.530000e-01  1.861880e+05
  CG311   CG331     1  1.538000e-01  1.861880e+05
  CG311    HGA1     1  1.111000e-01  2.585712e+05
  CG311    HGA3     1  1.111000e-01  2.694496e+05
  CG311   NG2S1     1  1.430000e-01  2.677760e+05
  CG311   OG311     1  1.420000e-01  3.581504e+05
  CG321   CG321     1  1.530000e-01  1.861880e+05
  CG321   CG324     1  1.530000e-01  1.861880e+05
  CG321   CG331     1  1.528000e-01  1.861880e+05
  CG321    HGA2     1  1.111000e-01  2.585712e+05
  CG321   NG2S1     1  1.430000e-01  2.677760e+05
  CG321   OG311     1  1.420000e-01  3.581504e+05
  CG324   CG324     1  1.530000e-01  1.861880e+05
  CG324   CG331     1  1.528000e-01  1.861880e+05
  CG324    HGA2     1  1.100000e-01  2.380696e+05
  CG324   NG3P3     1  1.490000e-01  1.673600e+05
  CG331   CG331     1  1.530000e-01  1.861880e+05
  CG331    HGA3     1  1.111000e-01  2.694496e+05
  CG331   NG2S1     1  1.430000e-01  2.677760e+05
  CG331   OG311     1  1.420000e-01  3.581504e+05
  NG2S1    HGP1     1  9.970000e-02  3.681920e+05
  NG2S1   NG2S1     1  1.360000e-01  4.602400e+05
  NG2S1   OG311     1  1.403200e-01  2.661275e+05
  NG3P3    HGP2     1  1.040000e-01  3.372304e+05
  OG311    HGP1     1  9.600000e-02  4.560560e+05

[ pairtypes ]
; i	j	func	sigma1-4	epsilon1-4
  CG2O1   CG311     1  3.47450500075e-01  1.38767581228e-01 
  CG2O1   CG321     1  3.47450500075e-01  1.38767581228e-01 
  CG2O1   CG324     1  3.47450500075e-01  1.38767581228e-01 
  CG2O1   CG331     1  3.47450500075e-01  1.38767581228e-01 
  CG2O1   NG2S1     1  3.16269044940e-01  6.20587489400e-01 
  CG2O1   OG2D1     1  3.02905564168e-01  4.80705002262e-01 
 CG2R61   CG311     1  3.46773417049e-01  1.10698234855e-01 
 CG2R61   CG321     1  3.46773417049e-01  1.10698234855e-01 
 CG2R61   CG324     1  3.46773417049e-01  1.10698234855e-01 
 CG2R61   CG331     1  3.46773417049e-01  1.10698234855e-01 
 CG2R61   NG2S1     1  3.15591961914e-01  4.95057556250e-01 
 CG2R61   OG2D1     1  3.02228481142e-01  3.83469934154e-01 
  CG311   CG311     1  3.38541512893e-01  4.18400000000e-02 
  CG311   CG321     1  3.38541512893e-01  4.18400000000e-02 
  CG311   CG324     1  3.38541512893e-01  4.18400000000e-02 
  CG311   CG331     1  3.38541512893e-01  4.18400000000e-02 
  CG311    HGA1     1  2.88651184677e-01  8.87560431745e-02 
  CG311    HGA2     1  2.88651184677e-01  7.82754725313e-02 
  CG311    HGA3     1  2.88651184677e-01  6.48182492821e-02 
  CG311    HGP1     1  1.89271432669e-01  8.97368027066e-02 
  CG311    HGP2     1  1.89271432669e-01  8.97368027066e-02 
  CG311   HGR61     1  2.90272620344e-01  7.24690057887e-02 
  CG311   NG2S1     1  3.07360057758e-01  1.87114168357e-01 
  CG311   NG3P3     1  3.34087019303e-01  1.87114168357e-01 
  CG311   OG2D1     1  2.93996576986e-01  1.44938011577e-01 
  CG311   OG311     1  3.26514380198e-01  1.83381431383e-01 
  CG321   CG321     1  3.38541512893e-01  4.18400000000e-02 
  CG321   CG324     1  3.38541512893e-01  4.18400000000e-02 
  CG321   CG331     1  3.38541512893e-01  4.18400000000e-02 
  CG321    HGA1     1  2.88651184677e-01  8.87560431745e-02 
  CG321    HGA2     1  2.88651184677e-01  7.82754725313e-02 
  CG321    HGA3     1  2.88651184677e-01  6.48182492821e-02 
  CG321    HGP1     1  1.89271432669e-01  8.97368027066e-02 
  CG321    HGP2     1  1.89271432669e-01  8.97368027066e-02 
  CG321   HGR61     1  2.90272620344e-01  7.24690057887e-02 
  CG321   NG2S1     1  3.07360057758e-01  1.87114168357e-01 
  CG321   NG3P3     1  3.34087019303e-01  1.87114168357e-01 
  CG321   OG2D1     1  2.93996576986e-01  1.44938011577e-01 
  CG321   OG311     1  3.26514380198e-01  1.83381431383e-01 
  CG324   CG324     1  3.38541512893e-01  4.18400000000e-02 
  CG324   CG331     1  3.38541512893e-01  4.18400000000e-02 
  CG324    HGA1     1  2.88651184677e-01  8.87560431745e-02 
  CG324    HGA2     1  2.88651184677e-01  7.82754725313e-02 
  CG324    HGA3     1  2.88651184677e-01  6.48182492821e-02 
  CG324    HGP1     1  1.89271432669e-01  8.97368027066e-02 
  CG324    HGP2     1  1.89271432669e-01  8.97368027066e-02 
  CG324   HGR61     1  2.90272620344e-01  7.24690057887e-02 
  CG324   NG2S1     1  3.07360057758e-01  1.87114168357e-01 
  CG324   NG3P3     1  3.34087019303e-01  1.87114168357e-01 
  CG324   OG2D1     1  2.93996576986e-01  1.44938011577e-01 
  CG324   OG311     1  3.26514380198e-01  1.83381431383e-01 
  CG331   CG331     1  3.38541512893e-01  4.18400000000e-02 
  CG331    HGA1     1  2.88651184677e-01  8.87560431745e-02 
  CG331    HGA2     1  2.88651184677e-01  7.82754725313e-02 
  CG331    HGA3     1  2.88651184677e-01  6.48182492821e-02 
  CG331    HGP1     1  1.89271432669e-01  8.97368027066e-02 
  CG331    HGP2     1  1.89271432669e-01  8.97368027066e-02 
  CG331   HGR61     1  2.90272620344e-01  7.24690057887e-02 
  CG331   NG2S1     1  3.07360057758e-01  1.87114168357e-01 
  CG331   NG3P3     1  3.34087019303e-01  1.87114168357e-01 
  CG331   OG2D1     1  2.93996576986e-01  1.44938011577e-01 
  CG331   OG311     1  3.26514380198e-01  1.83381431383e-01 
   HGA1   NG2S1     1  2.57469729543e-01  3.96929091904e-01 
   HGA1   OG2D1     1  2.44106248770e-01  3.07459952514e-01 
   HGA2   NG2S1     1  2.57469729543e-01  3.50058555102e-01 
   HGA2   OG2D1     1  2.44106248770e-01  2.71154190821e-01 
   HGA3   NG2S1     1  2.57469729543e-01  2.89876023155e-01 
   HGA3   OG2D1     1  2.44106248770e-01  2.24537002029e-01 
   HGP1   NG2S1     1  1.58089977534e-01  4.01315181871e-01 
   HGP1   OG2D1     1  1.44726496762e-01  3.10857403193e-01 
   HGP2   NG2S1     1  1.58089977534e-01  4.01315181871e-01 
   HGP2   OG2D1     1  1.44726496762e-01  3.10857403193e-01 
  HGR61   NG2S1     1  2.59091165210e-01  3.24091246411e-01 
  HGR61   OG2D1     1  2.45727684437e-01  2.51040000000e-01 
  NG2S1   NG2S1     1  2.76178602624e-01  8.36800000000e-01 
  NG2S1   NG3P3     1  3.02905564168e-01  8.36800000000e-01 
  NG2S1   OG2D1     1  2.62815121851e-01  6.48182492821e-01 
  NG2S1   OG311     1  2.95332925064e-01  8.20106692766e-01 
  NG3P3   OG2D1     1  2.89542083396e-01  6.48182492821e-01 
  OG2D1   OG2D1     1  2.49451641079e-01  5.02080000000e-01 
  OG2D1   OG311     1  2.81969444291e-01  6.35251912639e-01 

[ angletypes ]
; i	j	k	func	th0	cth	S0	Kub
  CG2O1   CG2O1   NG2S1     5  1.0803920e+02  4.7839856e+02  0.0000000e+00  0.0000000e+00
  CG2O1   CG2O1   OG2D1     5  1.1176450e+02  4.5563760e+02  0.0000000e+00  0.0000000e+00
  CG2O1  CG2R61  CG2R61     5  1.1900000e+02  3.7656000e+02  0.0000000e+00  0.0000000e+00
  CG2O1   CG311   CG2O1     5  1.0120910e+02  8.3680000e+00  0.0000000e+00  0.0000000e+00
  CG2O1   CG311  CG2R61     5  1.0750000e+02  3.3472000e+02  0.0000000e+00  0.0000000e+00
  CG2O1   CG311   CG311     5  1.0800000e+02  4.3513600e+02  0.0000000e+00  0.0000000e+00
  CG2O1   CG311   CG321     5  1.0800000e+02  4.3513600e+02  0.0000000e+00  0.0000000e+00
  CG2O1   CG311   CG331     5  1.0800000e+02  4.3513600e+02  0.0000000e+00  0.0000000e+00
  CG2O1   CG311    HGA1     5  1.0950000e+02  4.1840000e+02  0.0000000e+00  0.0000000e+00
  CG2O1   CG311   NG2S1     5  1.0700000e+02  4.1840000e+02  0.0000000e+00  0.0000000e+00
  CG2O1   CG311   OG311     5  1.1100000e+02  9.3721600e+02  0.0000000e+00  0.0000000e+00
  CG2O1   CG321   CG2O1     5  1.2394500e+02  5.1739344e+02  0.0000000e+00  0.0000000e+00
  CG2O1   CG321  CG2R61     5  1.0750000e+02  4.3346240e+02  0.0000000e+00  0.0000000e+00
  CG2O1   CG321   CG311     5  1.0800000e+02  4.3513600e+02  0.0000000e+00  0.0000000e+00
  CG2O1   CG321   CG321     5  1.0800000e+02  4.3513600e+02  0.0000000e+00  0.0000000e+00
  CG2O1   CG321   CG324     5  1.0800000e+02  4.3513600e+02  0.0000000e+00  0.0000000e+00
  CG2O1   CG321   CG331     5  1.0800000e+02  4.3513600e+02  0.0000000e+00  0.0000000e+00
  CG2O1   CG321    HGA2     5  1.0950000e+02  2.7614400e+02  2.1630000e-01  2.5104000e+04
  CG2O1   CG321   NG2S1     5  1.0700000e+02  4.1840000e+02  0.0000000e+00  0.0000000e+00
  CG2O1   CG321   OG311     5  1.1100000e+02  9.3721600e+02  0.0000000e+00  0.0000000e+00
  CG2O1   CG324    HGA2     5  1.0950000e+02  2.7614400e+02  2.1630000e-01  2.5104000e+04
  CG2O1   CG324   NG3P3     5  1.1000000e+02  3.6568160e+02  0.0000000e+00  0.0000000e+00
  CG2O1   CG331    HGA3     5  1.0950000e+02  2.7614400e+02  2.1630000e-01  2.5104000e+04
  CG2O1   NG2S1   CG2O1     5  1.2000000e+02  4.1840000e+02  0.0000000e+00  0.0000000e+00
  CG2O1   NG2S1  CG2R61     5  1.2000000e+02  4.1840000e+02  0.0000000e+00  0.0000000e+00
  CG2O1   NG2S1   CG311     5  1.2000000e+02  4.1840000e+02  0.0000000e+00  0.0000000e+00
  CG2O1   NG2S1   CG321     5  1.2000000e+02  4.1840000e+02  0.0000000e+00  0.0000000e+00
  CG2O1   NG2S1   CG331     5  1.2000000e+02  4.1840000e+02  0.0000000e+00  0.0000000e+00
  CG2O1   NG2S1    HGP1     5  1.2300000e+02  2.8451200e+02  0.0000000e+00  0.0000000e+00
  CG2O1   NG2S1   NG2S1     5  1.1500000e+02  4.1840000e+02  0.0000000e+00  0.0000000e+00
  CG2O1   NG2S1   OG311     5  1.0586000e+02  4.5622336e+02  0.0000000e+00  0.0000000e+00
 CG2R61   CG2O1   NG2S1     5  1.1650000e+02  6.6944000e+02  0.0000000e+00  0.0000000e+00
 CG2R61   CG2O1   OG2D1     5  1.2100000e+02  2.5104000e+02  0.0000000e+00  0.0000000e+00
 CG2R61  CG2R61  CG2R61     5  1.2000000e+02  3.3472000e+02  2.4162000e-01  2.9288000e+04
 CG2R61  CG2R61   CG311     5  1.2000000e+02  3.8325440e+02  0.0000000e+00  0.0000000e+00
 CG2R61  CG2R61   CG321     5  1.2000000e+02  3.8325440e+02  0.0000000e+00  0.0000000e+00
 CG2R61  CG2R61   CG324     5  1.2000000e+02  3.8325440e+02  0.0000000e+00  0.0000000e+00
 CG2R61  CG2R61   CG331     5  1.2000000e+02  3.8325440e+02  0.0000000e+00  0.0000000e+00
 CG2R61  CG2R61   HGR61     5  1.2000000e+02  2.5104000e+02  2.1525000e-01  1.8409600e+04
 CG2R61  CG2R61   NG2S1     5  1.2000000e+02  3.3472000e+02  2.4162000e-01  2.9288000e+04
 CG2R61  CG2R61   OG311     5  1.2000000e+02  3.7823360e+02  0.0000000e+00  0.0000000e+00
 CG2R61   CG311  CG2R61     5  1.0750000e+02  4.3346240e+02  0.0000000e+00  0.0000000e+00
 CG2R61   CG311   CG311     5  1.0750000e+02  4.3346240e+02  0.0000000e+00  0.0000000e+00
 CG2R61   CG311   CG321     5  1.0750000e+02  4.3346240e+02  0.0000000e+00  0.0000000e+00
 CG2R61   CG311   CG331     5  1.0750000e+02  4.3346240e+02  0.0000000e+00  0.0000000e+00
 CG2R61   CG311    HGA1     5  1.1100000e+02  3.5982400e+02  0.0000000e+00  0.0000000e+00
 CG2R61   CG311   NG2S1     5  1.1520000e+02  4.4350400e+02  0.0000000e+00  0.0000000e+00
 CG2R61   CG311   OG311     5  1.1280000e+02  6.8617600e+02  0.0000000e+00  0.0000000e+00
 CG2R61   CG321  CG2R61     5  1.0750000e+02  4.3346240e+02  0.0000000e+00  0.0000000e+00
 CG2R61   CG321   CG311     5  1.0750000e+02  4.3346240e+02  0.0000000e+00  0.0000000e+00
 CG2R61   CG321   CG321     5  1.0750000e+02  4.3346240e+02  0.0000000e+00  0.0000000e+00
 CG2R61   CG321   CG331     5  1.0750000e+02  4.3346240e+02  0.0000000e+00  0.0000000e+00
 CG2R61   CG321    HGA2     5  1.0750000e+02  4.1254240e+02  0.0000000e+00  0.0000000e+00
 CG2R61   CG321   NG2S1     5  1.1520000e+02  4.4350400e+02  0.0000000e+00  0.0000000e+00
 CG2R61   CG321   OG311     5  1.1010000e+02  6.3345760e+02  0.0000000e+00  0.0000000e+00
 CG2R61   CG324    HGA2     5  1.0750000e+02  4.1254240e+02  0.0000000e+00  0.0000000e+00
 CG2R61   CG324   NG3P3     5  1.0700000e+02  3.7656000e+02  0.0000000e+00  0.0000000e+00
 CG2R61   CG331    HGA3     5  1.0750000e+02  4.1254240e+02  0.0000000e+00  0.0000000e+00
 CG2R61   NG2S1    HGP1     5  1.1700000e+02  2.8451200e+02  0.0000000e+00  0.0000000e+00
 CG2R61   OG311    HGP1     5  1.0800000e+02  5.4392000e+02  0.0000000e+00  0.0000000e+00
  CG311   CG2O1   NG2S1     5  1.1650000e+02  6.6944000e+02  0.0000000e+00  0.0000000e+00
  CG311   CG2O1   OG2D1     5  1.2100000e+02  6.6944000e+02  0.0000000e+00  0.0000000e+00
  CG311   CG311   CG311     5  1.1100000e+02  4.4643280e+02  2.5610000e-01  6.6944000e+03
  CG311   CG311   CG321     5  1.1100000e+02  4.4643280e+02  2.5610000e-01  6.6944000e+03
  CG311   CG311   CG324     5  1.1050000e+02  4.8827280e+02  2.5610000e-01  9.3386880e+03
  CG311   CG311   CG331     5  1.0850000e+02  4.4643280e+02  2.5610000e-01  6.6944000e+03
  CG311   CG311    HGA1     5  1.1010000e+02  2.8869600e+02  2.1790000e-01  1.8853104e+04
  CG311   CG311   NG2S1     5  1.1350000e+02  5.8576000e+02  0.0000000e+00  0.0000000e+00
  CG311   CG311   OG311     5  1.1010000e+02  6.3345760e+02  0.0000000e+00  0.0000000e+00
  CG311   CG321   CG311     5  1.1350000e+02  4.8827280e+02  2.5610000e-01  9.3386880e+03
  CG311   CG321   CG321     5  1.1350000e+02  4.8827280e+02  2.5610000e-01  9.3386880e+03
  CG311   CG321   CG324     5  1.1050000e+02  4.8827280e+02  2.5610000e-01  9.3386880e+03
  CG311   CG321   CG331     5  1.1350000e+02  4.8827280e+02  2.5610000e-01  9.3386880e+03
  CG311   CG321    HGA2     5  1.1010000e+02  2.7974224e+02  2.1790000e-01  1.8853104e+04
  CG311   CG321   NG2S1     5  1.1350000e+02  5.8576000e+02  0.0000000e+00  0.0000000e+00
  CG311   CG321   OG311     5  1.1010000e+02  6.3345760e+02  0.0000000e+00  0.0000000e+00
  CG311   CG324    HGA2     5  1.1180000e+02  2.2175200e+02  2.1790000e-01  1.8853104e+04
  CG311   CG324   NG3P3     5  1.1000000e+02  5.6651360e+02  0.0000000e+00  0.0000000e+00
  CG311   CG331    HGA3     5  1.1010000e+02  2.7974224e+02  2.1790000e-01  1.8853104e+04
  CG311   NG2S1    HGP1     5  1.1700000e+02  2.9288000e+02  0.0000000e+00  0.0000000e+00
  CG311   OG311    HGP1     5  1.0600000e+02  4.1840000e+02  0.0000000e+00  0.0000000e+00
  CG321   CG2O1   NG2S1     5  1.1650000e+02  6.6944000e+02  0.0000000e+00  0.0000000e+00
  CG321   CG2O1   OG2D1     5  1.2100000e+02  6.6944000e+02  0.0000000e+00  0.0000000e+00
  CG321   CG311   CG321     5  1.1350000e+02  4.8827280e+02  2.5610000e-01  9.3386880e+03
  CG321   CG311   CG324     5  1.1050000e+02  4.8827280e+02  2.5610000e-01  9.3386880e+03
  CG321   CG311   CG331     5  1.1400000e+02  4.4643280e+02  2.5610000e-01  6.6944000e+03
  CG321   CG311    HGA1     5  1.1010000e+02  2.8869600e+02  2.1790000e-01  1.8853104e+04
  CG321   CG311   NG2S1     5  1.1350000e+02  5.8576000e+02  0.0000000e+00  0.0000000e+00
  CG321   CG311   OG311     5  1.1000000e+02  6.3345760e+02  0.0000000e+00  0.0000000e+00
  CG321   CG321   CG321     5  1.1360000e+02  4.8827280e+02  2.5610000e-01  9.3386880e+03
  CG321   CG321   CG324     5  1.1050000e+02  4.8827280e+02  2.5610000e-01  9.3386880e+03
  CG321   CG321   CG331     5  1.1500000e+02  4.8534400e+02  2.5610000e-01  6.6944000e+03
  CG321   CG321    HGA2     5  1.1010000e+02  2.2175200e+02  2.1790000e-01  1.8853104e+04
  CG321   CG321   NG2S1     5  1.1350000e+02  5.8576000e+02  0.0000000e+00  0.0000000e+00
  CG321   CG321   OG311     5  1.1010000e+02  6.3345760e+02  0.0000000e+00  0.0000000e+00
  CG321   CG324    HGA2     5  1.1180000e+02  2.2175200e+02  2.1790000e-01  1.8853104e+04
  CG321   CG324   NG3P3     5  1.1000000e+02  5.6651360e+02  0.0000000e+00  0.0000000e+00
  CG321   CG331    HGA3     5  1.1010000e+02  2.8953280e+02  2.1790000e-01  1.8853104e+04
  CG321   NG2S1    HGP1     5  1.1700000e+02  2.9288000e+02  0.0000000e+00  0.0000000e+00
  CG321   OG311    HGP1     5  1.0600000e+02  4.1840000e+02  0.0000000e+00  0.0000000e+00
  CG324   CG2O1   NG2S1     5  1.1650000e+02  6.6944000e+02  0.0000000e+00  0.0000000e+00
  CG324   CG2O1   OG2D1     5  1.2100000e+02  6.6944000e+02  0.0000000e+00  0.0000000e+00
  CG324   CG311   CG324     5  1.1694320e+02  4.1061776e+02  0.0000000e+00  0.0000000e+00
  CG324   CG311   CG331     5  1.0850000e+02  4.4643280e+02  2.5610000e-01  6.6944000e+03
  CG324   CG311    HGA1     5  1.1180000e+02  2.2175200e+02  2.1790000e-01  1.8853104e+04
  CG324   CG311   NG2S1     5  1.1350000e+02  5.8576000e+02  0.0000000e+00  0.0000000e+00
  CG324   CG311   OG311     5  1.1210000e+02  6.3345760e+02  0.0000000e+00  0.0000000e+00
  CG324   CG321   CG324     5  1.1431480e+02  4.5831536e+02  0.0000000e+00  0.0000000e+00
  CG324   CG321   CG331     5  1.1050000e+02  4.8827280e+02  2.5610000e-01  9.3386880e+03
  CG324   CG321    HGA2     5  1.1010000e+02  2.2175200e+02  2.1790000e-01  1.8853104e+04
  CG324   CG321   NG2S1     5  1.1350000e+02  5.8576000e+02  0.0000000e+00  0.0000000e+00
  CG324   CG321   OG311     5  1.1210000e+02  6.3345760e+02  0.0000000e+00  0.0000000e+00
  CG324   CG324    HGA2     5  1.1010000e+02  2.2175200e+02  2.1790000e-01  1.8853104e+04
  CG324   CG331    HGA3     5  1.1010000e+02  2.8953280e+02  2.1790000e-01  1.8853104e+04
  CG324   NG3P3    HGP2     5  1.0950000e+02  2.5104000e+02  2.0740000e-01  1.6736000e+04
  CG331   CG2O1   NG2S1     5  1.1650000e+02  6.6944000e+02  0.0000000e+00  0.0000000e+00
  CG331   CG2O1   OG2D1     5  1.2100000e+02  6.6944000e+02  0.0000000e+00  0.0000000e+00
  CG331   CG311   CG331     5  1.1400000e+02  4.4643280e+02  2.5610000e-01  6.6944000e+03
  CG331   CG311    HGA1     5  1.1010000e+02  2.8869600e+02  2.1790000e-01  1.8853104e+04
  CG331   CG311   NG2S1     5  1.1350000e+02  5.8576000e+02  0.0000000e+00  0.0000000e+00
  CG331   CG311   OG311     5  1.1010000e+02  6.3345760e+02  0.0000000e+00  0.0000000e+00
  CG331   CG321   CG331     5  1.1400000e+02  4.4643280e+02  2.5610000e-01  6.6944000e+03
  CG331   CG321    HGA2     5  1.1010000e+02  2.8953280e+02  2.1790000e-01  1.8853104e+04
  CG331   CG321   NG2S1     5  1.2000000e+02  5.8576000e+02  0.0000000e+00  0.0000000e+00
  CG331   CG321   OG311     5  1.1010000e+02  6.3345760e+02  0.0000000e+00  0.0000000e+00
  CG331   CG324    HGA2     5  1.1010000e+02  2.8953280e+02  2.1790000e-01  1.8853104e+04
  CG331   CG324   NG3P3     5  1.1000000e+02  5.6651360e+02  0.0000000e+00  0.0000000e+00
  CG331   CG331    HGA3     5  1.1010000e+02  3.1380000e+02  2.1790000e-01  1.8853104e+04
  CG331   NG2S1    HGP1     5  1.1700000e+02  2.9288000e+02  0.0000000e+00  0.0000000e+00
  CG331   OG311    HGP1     5  1.0600000e+02  4.8116000e+02  0.0000000e+00  0.0000000e+00
   HGA2   CG321    HGA2     5  1.0900000e+02  2.9706400e+02  1.8020000e-01  4.5187200e+03
   HGA2   CG324    HGA2     5  1.0900000e+02  2.9706400e+02  1.8020000e-01  4.5187200e+03
   HGA3   CG331    HGA3     5  1.0840000e+02  2.9706400e+02  1.8020000e-01  4.5187200e+03
   HGP2   NG3P3    HGP2     5  1.0950000e+02  3.6819200e+02  0.0000000e+00  0.0000000e+00
  NG2S1   CG2O1   OG2D1     5  1.2250000e+02  6.6944000e+02  0.0000000e+00  0.0000000e+00
  NG2S1   CG311    HGA1     5  1.0800000e+02  4.0166400e+02  0.0000000e+00  0.0000000e+00
  NG2S1   CG311   NG2S1     5  1.1102670e+02  7.4458464e+02  0.0000000e+00  0.0000000e+00
  NG2S1   CG311   OG311     5  1.1350000e+02  5.8576000e+02  0.0000000e+00  0.0000000e+00
  NG2S1   CG321    HGA2     5  1.0950000e+02  4.3095200e+02  0.0000000e+00  0.0000000e+00
  NG2S1   CG331    HGA3     5  1.0950000e+02  4.3095200e+02  0.0000000e+00  0.0000000e+00
  NG2S1   NG2S1    HGP1     5  1.2200000e+02  2.8451200e+02  0.0000000e+00  0.0000000e+00
  NG2S1   OG311    HGP1     5  9.8890000e+01  5.4383632e+02  0.0000000e+00  0.0000000e+00
  NG3P3   CG324    HGA2     5  1.0750000e+02  3.7656000e+02  2.1010000e-01  2.9288000e+04
  OG311   CG311    HGA1     5  1.0889000e+02  3.8409120e+02  0.0000000e+00  0.0000000e+00
  OG311   CG311   OG311     5  1.1715000e+02  8.4098400e+02  0.0000000e+00  0.0000000e+00
  OG311   CG321    HGA2     5  1.0889000e+02  3.8409120e+02  0.0000000e+00  0.0000000e+00
  OG311   CG331    HGA3     5  1.0889000e+02  3.8409120e+02  0.0000000e+00  0.0000000e+00
  OG311   NG2S1    HGP1     5  9.8230000e+01  3.1380000e+02  0.0000000e+00  0.0000000e+00

[ dihedraltypes ]
; i	j	k	l	func	phi0	cp	mult
  CG2O1   CG2O1   NG2S1   CG321     9  0.000000e+00  1.046000e+00      2
  CG2O1   CG2O1   NG2S1   CG321     9  0.000000e+00  1.238464e+01      1
  CG2O1   CG2O1   NG2S1    HGP1     9  1.800000e+02  7.070960e+00      2
  CG2O1  CG2R61  CG2R61  CG2R61     9  1.800000e+02  1.297040e+01      2
  CG2O1  CG2R61  CG2R61   CG311     9  1.800000e+02  4.016640e+00      2
  CG2O1  CG2R61  CG2R61   CG321     9  0.000000e+00  0.000000e+00      2
  CG2O1  CG2R61  CG2R61   CG331     9  1.800000e+02  1.138048e+01      2
  CG2O1  CG2R61  CG2R61   HGR61     9  1.800000e+02  1.004160e+01      2
  CG2O1  CG2R61  CG2R61   NG2S1     9  0.000000e+00  0.000000e+00      2
  CG2O1  CG2R61  CG2R61   OG311     9  1.800000e+02  1.631760e+00      2
  CG2O1   CG311   CG311   CG321     9  0.000000e+00  8.368000e-01      3
  CG2O1   CG311   CG311   CG331     9  0.000000e+00  8.368000e-01      3
  CG2O1   CG311   CG311    HGA1     9  0.000000e+00  8.368000e-01      3
  CG2O1   CG311   CG311   OG311     9  0.000000e+00  8.368000e-01      3
  CG2O1   CG311   CG321   CG2O1     9  0.000000e+00  8.368000e-01      3
  CG2O1   CG311   CG321  CG2R61     9  0.000000e+00  1.673600e-01      3
  CG2O1   CG311   CG321   CG311     9  0.000000e+00  8.368000e-01      3
  CG2O1   CG311   CG321   CG321     9  0.000000e+00  8.368000e-01      3
  CG2O1   CG311   CG321   CG324     9  0.000000e+00  8.158800e-01      3
  CG2O1   CG311   CG321   CG324     9  0.000000e+00  8.158800e-01      3
  CG2O1   CG311   CG321   CG331     9  0.000000e+00  8.368000e-01      3
  CG2O1   CG311   CG321    HGA2     9  0.000000e+00  8.368000e-01      3
  CG2O1   CG311   CG321   NG2S1     9  0.000000e+00  8.368000e-01      3
  CG2O1   CG311   CG321   NG2S1     9  0.000000e+00  1.882800e+00      3
  CG2O1   CG311   CG321   OG311     9  0.000000e+00  8.368000e-01      3
  CG2O1   CG311   CG331    HGA3     9  0.000000e+00  8.368000e-01      3
  CG2O1   CG311   NG2S1   CG2O1     9  1.800000e+02  8.368000e-01      1
  CG2O1   CG311   NG2S1    HGP1     9  0.000000e+00  0.000000e+00      1
  CG2O1   CG311   OG311    HGP1     9  0.000000e+00  1.464400e+00      1
  CG2O1   CG311   OG311    HGP1     9  0.000000e+00  1.548080e+00      2
  CG2O1   CG311   OG311    HGP1     9  1.800000e+02  4.184000e-02      3
  CG2O1   CG321   CG321   CG2O1     9  0.000000e+00  8.368000e-01      3
  CG2O1   CG321   CG321  CG2R61     9  0.000000e+00  1.673600e-01      3
  CG2O1   CG321   CG321   CG311     9  0.000000e+00  8.158800e-01      3
  CG2O1   CG321   CG321   CG321     9  0.000000e+00  8.158800e-01      3
  CG2O1   CG321   CG321   CG324     9  0.000000e+00  8.158800e-01      3
  CG2O1   CG321   CG321   CG331     9  0.000000e+00  8.158800e-01      3
  CG2O1   CG321   CG321    HGA2     9  0.000000e+00  8.158800e-01      3
  CG2O1   CG321   CG321   NG2S1     9  0.000000e+00  8.368000e-01      3
  CG2O1   CG321   CG321   OG311     9  0.000000e+00  8.368000e-01      3
  CG2O1   CG321   CG331    HGA3     9  0.000000e+00  6.694400e-01      3
  CG2O1   CG321   NG2S1   CG2O1     9  1.800000e+02  8.368000e-01      1
  CG2O1   CG321   NG2S1    HGP1     9  0.000000e+00  0.000000e+00      1
  CG2O1   CG321   OG311    HGP1     9  0.000000e+00  1.464400e+00      1
  CG2O1   CG321   OG311    HGP1     9  0.000000e+00  1.548080e+00      2
  CG2O1   CG321   OG311    HGP1     9  1.800000e+02  4.184000e-02      3
  CG2O1   CG324   NG3P3    HGP2     9  0.000000e+00  4.184000e-01      3
  CG2O1   NG2S1   NG2S1   CG2O1     9  1.800000e+02  5.439200e+00      2
  CG2O1   NG2S1   NG2S1   CG2O1     9  1.800000e+02  1.422560e+01      1
  CG2O1   NG2S1   NG2S1    HGP1     9  1.800000e+02  6.652560e+00      2
  CG2O1   NG2S1   NG2S1    HGP1     9  1.800000e+02  1.046000e+01      2
  CG2O1   NG2S1   OG311    HGP1     9  0.000000e+00  3.445524e+00      2
  CG2O1   NG2S1   OG311    HGP1     9  0.000000e+00  8.773848e+00      1
 CG2R61   CG2O1   NG2S1  CG2R61     9  0.000000e+00  0.000000e+00      2
 CG2R61   CG2O1   NG2S1  CG2R61     9  1.800000e+02  8.368000e-01      1
 CG2R61   CG2O1   NG2S1   CG311     9  0.000000e+00  6.694400e+00      1
 CG2R61   CG2O1   NG2S1   CG311     9  1.800000e+02  1.673600e+01      2
 CG2R61   CG2O1   NG2S1   CG321     9  0.000000e+00  6.694400e+00      1
 CG2R61   CG2O1   NG2S1   CG321     9  1.800000e+02  1.673600e+01      2
 CG2R61   CG2O1   NG2S1    HGP1     9  1.800000e+02  1.046000e+01      2
 CG2R61   CG2O1   NG2S1   NG2S1     9  0.000000e+00  3.138000e+00      1
 CG2R61   CG2O1   NG2S1   NG2S1     9  1.800000e+02  1.255200e+01      2
 CG2R61  CG2R61  CG2R61  CG2R61     9  1.800000e+02  1.297040e+01      2
 CG2R61  CG2R61  CG2R61   CG311     9  1.800000e+02  1.297040e+01      2
 CG2R61  CG2R61  CG2R61   CG321     9  1.800000e+02  1.297040e+01      2
 CG2R61  CG2R61  CG2R61   CG324     9  1.800000e+02  1.297040e+01      2
 CG2R61  CG2R61  CG2R61   CG331     9  1.800000e+02  1.297040e+01      2
 CG2R61  CG2R61  CG2R61   HGR61     9  1.800000e+02  1.757280e+01      2
 CG2R61  CG2R61  CG2R61   NG2S1     9  1.800000e+02  1.297040e+01      2
 CG2R61  CG2R61  CG2R61   OG311     9  1.800000e+02  1.297040e+01      2
 CG2R61  CG2R61   CG311   CG2O1     9  0.000000e+00  8.368000e-01      2
 CG2R61  CG2R61   CG311  CG2R61     9  1.800000e+02  9.623200e-01      2
 CG2R61  CG2R61   CG311   CG311     9  1.800000e+02  9.623200e-01      2
 CG2R61  CG2R61   CG311   CG311     9  1.800000e+02  9.623200e-01      2
 CG2R61  CG2R61   CG311   CG321     9  1.800000e+02  9.623200e-01      2
 CG2R61  CG2R61   CG311   CG331     9  1.800000e+02  9.623200e-01      2
 CG2R61  CG2R61   CG311    HGA1     9  1.800000e+02  4.184000e-01      6
 CG2R61  CG2R61   CG311   NG2S1     9  0.000000e+00  4.978960e-01      2
 CG2R61  CG2R61   CG311   NG2S1     9  1.800000e+02  5.439200e-02      6
 CG2R61  CG2R61   CG311   NG2S1     9  1.800000e+02  5.522880e-01      4
 CG2R61  CG2R61   CG311   OG311     9  1.800000e+02  2.928800e+00      2
 CG2R61  CG2R61   CG321   CG2O1     9  0.000000e+00  4.184000e-01      2
 CG2R61  CG2R61   CG321  CG2R61     9  1.800000e+02  9.623200e-01      2
 CG2R61  CG2R61   CG321   CG311     9  1.800000e+02  9.623200e-01      2
 CG2R61  CG2R61   CG321   CG321     9  1.800000e+02  9.623200e-01      2
 CG2R61  CG2R61   CG321   CG324     9  1.800000e+02  2.719600e+00      2
 CG2R61  CG2R61   CG321   CG331     9  1.800000e+02  9.623200e-01      2
 CG2R61  CG2R61   CG321    HGA2     9  0.000000e+00  8.368000e-03      6
 CG2R61  CG2R61   CG321   NG2S1     9  0.000000e+00  4.978960e-01      2
 CG2R61  CG2R61   CG321   NG2S1     9  1.800000e+02  5.439200e-02      6
 CG2R61  CG2R61   CG321   NG2S1     9  1.800000e+02  5.522880e-01      4
 CG2R61  CG2R61   CG321   OG311     9  0.000000e+00  0.000000e+00      2
 CG2R61  CG2R61   CG324    HGA2     9  0.000000e+00  0.000000e+00      2
 CG2R61  CG2R61   CG324   NG3P3     9  0.000000e+00  1.380720e+00      2
 CG2R61  CG2R61   CG331    HGA3     9  0.000000e+00  8.368000e-03      6
 CG2R61  CG2R61   NG2S1   CG2O1     9  1.800000e+02  5.020800e+00      2
 CG2R61  CG2R61   NG2S1    HGP1     9  1.800000e+02  2.092000e+00      2
 CG2R61  CG2R61   OG311    HGP1     9  1.800000e+02  4.142160e+00      2
 CG2R61   CG311   CG311   CG321     9  0.000000e+00  1.673600e-01      3
 CG2R61   CG311   CG311   CG321     9  0.000000e+00  1.673600e-01      3
 CG2R61   CG311   CG311   CG331     9  0.000000e+00  1.673600e-01      3
 CG2R61   CG311   CG311   CG331     9  0.000000e+00  1.673600e-01      3
 CG2R61   CG311   CG311    HGA1     9  0.000000e+00  0.000000e+00      3
 CG2R61   CG311   CG311    HGA1     9  0.000000e+00  0.000000e+00      3
 CG2R61   CG311   CG311   OG311     9  1.800000e+02  5.020800e-01      3
 CG2R61   CG311   CG321   CG2O1     9  0.000000e+00  1.673600e-01      3
 CG2R61   CG311   CG321   CG2O1     9  0.000000e+00  1.673600e-01      3
 CG2R61   CG311   CG321  CG2R61     9  0.000000e+00  4.309520e+00      3
 CG2R61   CG311   CG321   CG311     9  0.000000e+00  1.673600e-01      3
 CG2R61   CG311   CG321   CG321     9  0.000000e+00  1.673600e-01      3
 CG2R61   CG311   CG321   CG321     9  0.000000e+00  1.673600e-01      3
 CG2R61   CG311   CG321   CG324     9  0.000000e+00  1.673600e-01      3
 CG2R61   CG311   CG321   CG324     9  1.800000e+02  3.556400e+00      3
 CG2R61   CG311   CG321   CG331     9  0.000000e+00  1.673600e-01      3
 CG2R61   CG311   CG321    HGA2     9  0.000000e+00  0.000000e+00      3
 CG2R61   CG311   CG321   NG2S1     9  0.000000e+00  7.949600e-01      3
 CG2R61   CG311   CG321   OG311     9  0.000000e+00  8.368000e-01      3
 CG2R61   CG311   CG321   OG311     9  0.000000e+00  7.154640e+00      3
 CG2R61   CG311   CG331    HGA3     9  0.000000e+00  1.673600e-01      3
 CG2R61   CG311   NG2S1   CG2O1     9  0.000000e+00  6.276000e-02      1
 CG2R61   CG311   NG2S1   CG2O1     9  0.000000e+00  6.192320e-01      6
 CG2R61   CG311   NG2S1   CG2O1     9  0.000000e+00  1.246832e+00      2
 CG2R61   CG311   NG2S1   CG2O1     9  0.000000e+00  2.589896e+00      4
 CG2R61   CG311   NG2S1   CG2O1     9  1.800000e+02  3.179840e-01      3
 CG2R61   CG311   NG2S1    HGP1     9  0.000000e+00  0.000000e+00      1
 CG2R61   CG311   OG311    HGP1     9  0.000000e+00  2.259360e+00      2
 CG2R61   CG311   OG311    HGP1     9  0.000000e+00  3.221680e+00      3
 CG2R61   CG311   OG311    HGP1     9  0.000000e+00  4.518720e+00      1
 CG2R61   CG321   CG321  CG2R61     9  0.000000e+00  2.803280e+00      3
 CG2R61   CG321   CG321  CG2R61     9  0.000000e+00  3.891120e+00      2
 CG2R61   CG321   CG321   CG311     9  0.000000e+00  1.673600e-01      3
 CG2R61   CG321   CG321   CG311     9  0.000000e+00  1.673600e-01      3
 CG2R61   CG321   CG321   CG321     9  0.000000e+00  1.673600e-01      3
 CG2R61   CG321   CG321   CG331     9  0.000000e+00  1.673600e-01      3
 CG2R61   CG321   CG321    HGA2     9  0.000000e+00  1.673600e-01      3
 CG2R61   CG321   CG321   NG2S1     9  0.000000e+00  7.949600e-01      3
 CG2R61   CG321   CG321   OG311     9  0.000000e+00  8.368000e-01      3
 CG2R61   CG321   CG324    HGA2     9  0.000000e+00  1.673600e-01      3
 CG2R61   CG321   CG331    HGA3     9  0.000000e+00  1.673600e-01      3
 CG2R61   CG321   NG2S1   CG2O1     9  0.000000e+00  6.276000e-02      1
 CG2R61   CG321   NG2S1   CG2O1     9  0.000000e+00  6.192320e-01      6
 CG2R61   CG321   NG2S1   CG2O1     9  0.000000e+00  1.246832e+00      2
 CG2R61   CG321   NG2S1   CG2O1     9  0.000000e+00  2.589896e+00      4
 CG2R61   CG321   NG2S1   CG2O1     9  1.800000e+02  3.179840e-01      3
 CG2R61   CG321   NG2S1    HGP1     9  0.000000e+00  0.000000e+00      1
 CG2R61   CG321   OG311    HGP1     9  0.000000e+00  3.096160e+00      3
 CG2R61   CG321   OG311    HGP1     9  0.000000e+00  5.857600e+00      2
 CG2R61   CG321   OG311    HGP1     9  0.000000e+00  8.786400e+00      1
 CG2R61   CG324   NG3P3    HGP2     9  0.000000e+00  1.673600e-01      3
  CG311   CG2O1   NG2S1  CG2R61     9  0.000000e+00  6.694400e+00      1
  CG311   CG2O1   NG2S1  CG2R61     9  1.800000e+02  1.046000e+01      2
  CG311   CG2O1   NG2S1   CG311     9  0.000000e+00  6.694400e+00      1
  CG311   CG2O1   NG2S1   CG311     9  1.800000e+02  1.046000e+01      2
  CG311   CG2O1   NG2S1   CG321     9  0.000000e+00  6.694400e+00      1
  CG311   CG2O1   NG2S1   CG321     9  1.800000e+02  1.046000e+01      2
  CG311   CG2O1   NG2S1   CG331     9  0.000000e+00  6.694400e+00      1
  CG311   CG2O1   NG2S1   CG331     9  1.800000e+02  1.046000e+01      2
  CG311   CG2O1   NG2S1    HGP1     9  1.800000e+02  1.046000e+01      2
  CG311  CG2R61  CG2R61   CG311     9  1.800000e+02  1.004160e+01      2
  CG311  CG2R61  CG2R61   CG321     9  1.800000e+02  1.004160e+01      2
  CG311  CG2R61  CG2R61   CG331     9  1.800000e+02  1.004160e+01      2
  CG311  CG2R61  CG2R61   HGR61     9  1.800000e+02  1.004160e+01      2
  CG311  CG2R61  CG2R61   OG311     9  1.800000e+02  1.004160e+01      2
  CG311   CG311   CG311   CG311     9  1.800000e+02  2.092000e+00      4
  CG311   CG311   CG311   CG321     9  1.800000e+02  2.092000e+00      4
  CG311   CG311   CG311   CG324     9  0.000000e+00  8.368000e-01      3
  CG311   CG311   CG311   CG331     9  1.800000e+02  2.092000e+00      4
  CG311   CG311   CG311    HGA1     9  0.000000e+00  8.158800e-01      3
  CG311   CG311   CG311   NG2S1     9  0.000000e+00  8.368000e-01      3
  CG311   CG311   CG311   OG311     9  0.000000e+00  5.857600e-01      3
  CG311   CG311   CG321   CG311     9  0.000000e+00  8.368000e-01      3
  CG311   CG311   CG321   CG321     9  0.000000e+00  8.368000e-01      3
  CG311   CG311   CG321   CG324     9  0.000000e+00  8.368000e-01      3
  CG311   CG311   CG321   CG331     9  0.000000e+00  8.368000e-01      3
  CG311   CG311   CG321    HGA2     9  0.000000e+00  8.158800e-01      3
  CG311   CG311   CG321   NG2S1     9  0.000000e+00  8.368000e-01      3
  CG311   CG311   CG321   NG2S1     9  0.000000e+00  8.368000e-01      3
  CG311   CG311   CG321   OG311     9  1.800000e+02  8.368000e-01      3
  CG311   CG311   CG324    HGA2     9  0.000000e+00  8.158800e-01      3
  CG311   CG311   CG324    HGA2     9  0.000000e+00  8.368000e-01      3
  CG311   CG311   CG324   NG3P3     9  0.000000e+00  8.158800e-01      3
  CG311   CG311   CG331    HGA3     9  0.000000e+00  8.368000e-01      3
  CG311   CG311   NG2S1   CG2O1     9  0.000000e+00  7.531200e+00      1
  CG311   CG311   NG2S1    HGP1     9  0.000000e+00  0.000000e+00      1
  CG311   CG311   OG311    HGP1     9  0.000000e+00  7.531200e-01      2
  CG311   CG311   OG311    HGP1     9  0.000000e+00  1.924640e+00      3
  CG311   CG311   OG311    HGP1     9  0.000000e+00  5.564720e+00      1
  CG311   CG321   CG321   CG311     9  0.000000e+00  8.158800e-01      3
  CG311   CG321   CG321   CG321     9  0.000000e+00  2.092000e+00      3
  CG311   CG321   CG321   CG321     9  1.800000e+02  2.092000e+00      6
  CG311   CG321   CG321   CG324     9  0.000000e+00  8.158800e-01      3
  CG311   CG321   CG321   CG331     9  0.000000e+00  4.527088e-01      4
  CG311   CG321   CG321   CG331     9  0.000000e+00  6.296920e-01      2
  CG311   CG321   CG321   CG331     9  0.000000e+00  8.531176e-01      5
  CG311   CG321   CG321   CG331     9  1.800000e+02  3.401592e-01      3
  CG311   CG321   CG321    HGA2     9  0.000000e+00  8.158800e-01      3
  CG311   CG321   CG321   NG2S1     9  0.000000e+00  8.368000e-01      3
  CG311   CG321   CG321   NG2S1     9  0.000000e+00  8.368000e-01      3
  CG311   CG321   CG321   OG311     9  0.000000e+00  8.158800e-01      3
  CG311   CG321   CG324    HGA2     9  0.000000e+00  8.158800e-01      3
  CG311   CG321   CG324   NG3P3     9  0.000000e+00  8.158800e-01      3
  CG311   CG321   CG331    HGA3     9  0.000000e+00  6.694400e-01      3
  CG311   CG321   NG2S1   CG2O1     9  0.000000e+00  7.531200e+00      1
  CG311   CG321   NG2S1    HGP1     9  0.000000e+00  0.000000e+00      1
  CG311   CG321   OG311    HGP1     9  0.000000e+00  5.857600e-01      2
  CG311   CG321   OG311    HGP1     9  0.000000e+00  1.004160e+00      3
  CG311   CG321   OG311    HGP1     9  0.000000e+00  4.727920e+00      1
  CG311   CG324   NG3P3    HGP2     9  0.000000e+00  4.184000e-01      3
  CG321   CG2O1   NG2S1   CG2O1     9  0.000000e+00  6.694400e+00      1
  CG321   CG2O1   NG2S1   CG2O1     9  1.800000e+02  6.903600e+00      2
  CG321   CG2O1   NG2S1   CG2O1     9  1.800000e+02  1.046000e+01      2
  CG321   CG2O1   NG2S1  CG2R61     9  0.000000e+00  6.694400e+00      1
  CG321   CG2O1   NG2S1  CG2R61     9  1.800000e+02  1.046000e+01      2
  CG321   CG2O1   NG2S1   CG311     9  0.000000e+00  6.694400e+00      1
  CG321   CG2O1   NG2S1   CG311     9  1.800000e+02  1.046000e+01      2
  CG321   CG2O1   NG2S1   CG321     9  0.000000e+00  6.694400e+00      1
  CG321   CG2O1   NG2S1   CG321     9  1.800000e+02  1.046000e+01      2
  CG321   CG2O1   NG2S1   CG331     9  0.000000e+00  6.694400e+00      1
  CG321   CG2O1   NG2S1   CG331     9  1.800000e+02  1.046000e+01      2
  CG321   CG2O1   NG2S1    HGP1     9  1.800000e+02  1.046000e+01      2
  CG321   CG2O1   NG2S1   OG311     9  0.000000e+00  1.252355e+01      1
  CG321   CG2O1   NG2S1   OG311     9  1.800000e+02  2.946582e+01      2
  CG321  CG2R61  CG2R61   CG321     9  1.800000e+02  1.004160e+01      2
  CG321  CG2R61  CG2R61   CG324     9  1.800000e+02  7.405680e+00      2
  CG321  CG2R61  CG2R61   CG331     9  1.800000e+02  1.004160e+01      2
  CG321  CG2R61  CG2R61   HGR61     9  1.800000e+02  1.004160e+01      2
  CG321  CG2R61  CG2R61   NG2S1     9  1.800000e+02  1.004160e+01      2
  CG321  CG2R61  CG2R61   OG311     9  1.800000e+02  1.004160e+01      2
  CG321   CG311   CG311   CG321     9  1.800000e+02  2.092000e+00      4
  CG321   CG311   CG311   CG324     9  0.000000e+00  8.368000e-01      3
  CG321   CG311   CG311   CG324     9  0.000000e+00  8.368000e-01      3
  CG321   CG311   CG311   CG331     9  1.800000e+02  2.092000e+00      4
  CG321   CG311   CG311    HGA1     9  0.000000e+00  8.158800e-01      3
  CG321   CG311   CG311   NG2S1     9  0.000000e+00  8.368000e-01      3
  CG321   CG311   CG311   OG311     9  0.000000e+00  5.857600e-01      3
  CG321   CG311   CG321   CG2O1     9  0.000000e+00  8.368000e-01      3
  CG321   CG311   CG321  CG2R61     9  0.000000e+00  1.673600e-01      3
  CG321   CG311   CG321   CG311     9  0.000000e+00  8.368000e-01      3
  CG321   CG311   CG321   CG321     9  0.000000e+00  8.368000e-01      3
  CG321   CG311   CG321   CG324     9  0.000000e+00  8.368000e-01      3
  CG321   CG311   CG321   CG331     9  0.000000e+00  8.368000e-01      3
  CG321   CG311   CG321    HGA2     9  0.000000e+00  8.158800e-01      1
  CG321   CG311   CG321   NG2S1     9  0.000000e+00  8.368000e-01      3
  CG321   CG311   CG321   OG311     9  1.800000e+02  8.368000e-01      3
  CG321   CG311   CG324    HGA2     9  0.000000e+00  8.158800e-01      3
  CG321   CG311   CG324   NG3P3     9  0.000000e+00  8.158800e-01      3
  CG321   CG311   CG331    HGA3     9  0.000000e+00  8.368000e-01      3
  CG321   CG311   NG2S1   CG2O1     9  0.000000e+00  7.531200e+00      1
  CG321   CG311   NG2S1    HGP1     9  0.000000e+00  0.000000e+00      1
  CG321   CG311   OG311    HGP1     9  0.000000e+00  1.255200e+00      1
  CG321   CG311   OG311    HGP1     9  0.000000e+00  1.255200e+00      3
  CG321   CG321   CG321   CG321     9  0.000000e+00  2.698680e-01      2
  CG321   CG321   CG321   CG321     9  0.000000e+00  3.957227e-01      4
  CG321   CG321   CG321   CG321     9  0.000000e+00  4.707418e-01      5
  CG321   CG321   CG321   CG321     9  1.800000e+02  6.265540e-01      3
  CG321   CG321   CG321   CG324     9  0.000000e+00  8.158800e-01      3
  CG321   CG321   CG321   CG331     9  0.000000e+00  4.528762e-01      4
  CG321   CG321   CG321   CG331     9  0.000000e+00  6.297338e-01      2
  CG321   CG321   CG321   CG331     9  0.000000e+00  8.531594e-01      5
  CG321   CG321   CG321   CG331     9  1.800000e+02  3.402847e-01      3
  CG321   CG321   CG321    HGA2     9  0.000000e+00  8.158800e-01      3
  CG321   CG321   CG321   NG2S1     9  0.000000e+00  8.368000e-01      3
  CG321   CG321   CG321   OG311     9  0.000000e+00  8.158800e-01      3
  CG321   CG321   CG324    HGA2     9  0.000000e+00  8.158800e-01      3
  CG321   CG321   CG324   NG3P3     9  0.000000e+00  8.158800e-01      3
  CG321   CG321   CG331    HGA3     9  0.000000e+00  6.694400e-01      3
  CG321   CG321   NG2S1   CG2O1     9  0.000000e+00  7.531200e+00      1
  CG321   CG321   NG2S1    HGP1     9  0.000000e+00  0.000000e+00      1
  CG321   CG321   OG311    HGP1     9  0.000000e+00  5.857600e-01      2
  CG321   CG321   OG311    HGP1     9  0.000000e+00  1.004160e+00      3
  CG321   CG321   OG311    HGP1     9  0.000000e+00  4.727920e+00      1
  CG321   CG324   NG3P3    HGP2     9  0.000000e+00  4.184000e-01      3
  CG324   CG2O1   NG2S1   CG311     9  0.000000e+00  6.694400e+00      1
  CG324   CG2O1   NG2S1   CG311     9  1.800000e+02  1.046000e+01      2
  CG324   CG2O1   NG2S1   CG321     9  0.000000e+00  6.694400e+00      1
  CG324   CG2O1   NG2S1   CG321     9  1.800000e+02  1.046000e+01      2
  CG324   CG2O1   NG2S1   CG331     9  0.000000e+00  6.694400e+00      1
  CG324   CG2O1   NG2S1   CG331     9  1.800000e+02  1.046000e+01      2
  CG324   CG2O1   NG2S1    HGP1     9  1.800000e+02  1.046000e+01      2
  CG324  CG2R61  CG2R61   HGR61     9  1.800000e+02  1.004160e+01      2
  CG324   CG311   CG311   CG331     9  0.000000e+00  8.368000e-01      3
  CG324   CG311   CG311   CG331     9  0.000000e+00  8.368000e-01      3
  CG324   CG311   CG311    HGA1     9  0.000000e+00  8.158800e-01      3
  CG324   CG311   CG311    HGA1     9  0.000000e+00  8.368000e-01      3
  CG324   CG311   CG321   CG2O1     9  0.000000e+00  8.158800e-01      3
  CG324   CG311   CG321   CG311     9  0.000000e+00  8.158800e-01      3
  CG324   CG311   CG321   CG311     9  0.000000e+00  8.368000e-01      3
  CG324   CG311   CG321   CG321     9  0.000000e+00  8.158800e-01      3
  CG324   CG311   CG321   CG324     9  0.000000e+00  8.158800e-01      3
  CG324   CG311   CG321   CG331     9  0.000000e+00  8.368000e-01      3
  CG324   CG311   CG321    HGA2     9  0.000000e+00  8.158800e-01      3
  CG324   CG311   CG321   NG2S1     9  0.000000e+00  8.368000e-01      3
  CG324   CG311   CG324    HGA2     9  0.000000e+00  8.368000e-01      3
  CG324   CG311   CG331    HGA3     9  0.000000e+00  8.368000e-01      3
  CG324   CG311   NG2S1   CG2O1     9  0.000000e+00  7.531200e+00      1
  CG324   CG311   NG2S1    HGP1     9  0.000000e+00  0.000000e+00      1
  CG324   CG311   OG311    HGP1     9  0.000000e+00  2.092000e+00      1
  CG324   CG311   OG311    HGP1     9  0.000000e+00  2.928800e+00      2
  CG324   CG321   CG321   CG324     9  0.000000e+00  8.158800e-01      3
  CG324   CG321   CG321   CG331     9  0.000000e+00  8.158800e-01      3
  CG324   CG321   CG321    HGA2     9  0.000000e+00  8.158800e-01      3
  CG324   CG321   CG321   NG2S1     9  0.000000e+00  8.368000e-01      3
  CG324   CG321   CG321   OG311     9  0.000000e+00  8.158800e-01      3
  CG324   CG321   CG324    HGA2     9  0.000000e+00  8.368000e-01      3
  CG324   CG321   CG331    HGA3     9  0.000000e+00  8.368000e-01      3
  CG324   CG321   NG2S1   CG2O1     9  0.000000e+00  7.531200e+00      1
  CG324   CG321   NG2S1    HGP1     9  0.000000e+00  0.000000e+00      1
  CG324   CG321   OG311    HGP1     9  0.000000e+00  5.857600e-01      2
  CG324   CG321   OG311    HGP1     9  0.000000e+00  1.004160e+00      3
  CG324   CG321   OG311    HGP1     9  0.000000e+00  4.727920e+00      1
  CG331   CG2O1   NG2S1   CG2O1     9  0.000000e+00  6.694400e+00      1
  CG331   CG2O1   NG2S1   CG2O1     9  1.800000e+02  1.046000e+01      2
  CG331   CG2O1   NG2S1  CG2R61     9  0.000000e+00  6.694400e+00      1
  CG331   CG2O1   NG2S1  CG2R61     9  1.800000e+02  1.046000e+01      2
  CG331   CG2O1   NG2S1   CG311     9  0.000000e+00  6.694400e+00      1
  CG331   CG2O1   NG2S1   CG311     9  1.800000e+02  1.046000e+01      2
  CG331   CG2O1   NG2S1   CG321     9  0.000000e+00  6.694400e+00      1
  CG331   CG2O1   NG2S1   CG321     9  1.800000e+02  1.046000e+01      2
  CG331   CG2O1   NG2S1   CG331     9  0.000000e+00  6.694400e+00      1
  CG331   CG2O1   NG2S1   CG331     9  1.800000e+02  1.046000e+01      2
  CG331   CG2O1   NG2S1    HGP1     9  1.800000e+02  1.046000e+01      2
  CG331  CG2R61  CG2R61   CG331     9  1.800000e+02  1.004160e+01      2
  CG331  CG2R61  CG2R61   HGR61     9  1.800000e+02  1.004160e+01      2
  CG331  CG2R61  CG2R61   NG2S1     9  1.800000e+02  1.004160e+01      2
  CG331  CG2R61  CG2R61   OG311     9  1.800000e+02  1.004160e+01      2
  CG331   CG311   CG311   CG331     9  1.800000e+02  2.092000e+00      4
  CG331   CG311   CG311    HGA1     9  0.000000e+00  8.158800e-01      3
  CG331   CG311   CG311   NG2S1     9  0.000000e+00  8.368000e-01      3
  CG331   CG311   CG311   OG311     9  0.000000e+00  5.857600e-01      3
  CG331   CG311   CG321   CG2O1     9  0.000000e+00  8.368000e-01      3
  CG331   CG311   CG321  CG2R61     9  0.000000e+00  1.673600e-01      3
  CG331   CG311   CG321   CG311     9  0.000000e+00  8.368000e-01      3
  CG331   CG311   CG321   CG321     9  0.000000e+00  8.368000e-01      3
  CG331   CG311   CG321   CG324     9  0.000000e+00  8.368000e-01      3
  CG331   CG311   CG321   CG324     9  0.000000e+00  8.368000e-01      3
  CG331   CG311   CG321   CG331     9  0.000000e+00  8.368000e-01      3
  CG331   CG311   CG321    HGA2     9  0.000000e+00  8.368000e-01      3
  CG331   CG311   CG321   NG2S1     9  0.000000e+00  8.368000e-01      3
  CG331   CG311   CG321   OG311     9  1.800000e+02  8.368000e-01      3
  CG331   CG311   CG324    HGA2     9  0.000000e+00  8.158800e-01      3
  CG331   CG311   CG324   NG3P3     9  0.000000e+00  8.158800e-01      3
  CG331   CG311   CG331    HGA3     9  0.000000e+00  8.158800e-01      3
  CG331   CG311   NG2S1   CG2O1     9  0.000000e+00  7.531200e+00      1
  CG331   CG311   NG2S1    HGP1     9  0.000000e+00  0.000000e+00      1
  CG331   CG311   OG311    HGP1     9  0.000000e+00  7.531200e-01      2
  CG331   CG311   OG311    HGP1     9  0.000000e+00  1.924640e+00      3
  CG331   CG311   OG311    HGP1     9  0.000000e+00  5.564720e+00      1
  CG331   CG321   CG321   CG331     9  0.000000e+00  1.597870e-01      2
  CG331   CG321   CG321   CG331     9  1.800000e+02  1.329675e-01      6
  CG331   CG321   CG321    HGA2     9  0.000000e+00  7.531200e-01      3
  CG331   CG321   CG321   NG2S1     9  0.000000e+00  8.368000e-01      3
  CG331   CG321   CG321   OG311     9  0.000000e+00  8.158800e-01      3
  CG331   CG321   CG324    HGA2     9  0.000000e+00  8.158800e-01      3
  CG331   CG321   CG331    HGA3     9  0.000000e+00  6.694400e-01      3
  CG331   CG321   NG2S1   CG2O1     9  0.000000e+00  2.592406e+00      2
  CG331   CG321   NG2S1   CG2O1     9  1.800000e+02  7.455888e-01      3
  CG331   CG321   NG2S1    HGP1     9  0.000000e+00  0.000000e+00      1
  CG331   CG321   OG311    HGP1     9  0.000000e+00  5.857600e-01      2
  CG331   CG321   OG311    HGP1     9  0.000000e+00  1.004160e+00      3
  CG331   CG321   OG311    HGP1     9  0.000000e+00  4.727920e+00      1
  CG331   CG324   NG3P3    HGP2     9  0.000000e+00  4.184000e-01      3
   HGA1   CG311   CG311    HGA1     9  0.000000e+00  8.158800e-01      3
   HGA1   CG311   CG321   CG2O1     9  0.000000e+00  8.368000e-01      3
   HGA1   CG311   CG321  CG2R61     9  0.000000e+00  1.673600e-01      3
   HGA1   CG311   CG321   CG311     9  0.000000e+00  8.158800e-01      3
   HGA1   CG311   CG321   CG321     9  0.000000e+00  8.158800e-01      3
   HGA1   CG311   CG321   CG324     9  0.000000e+00  8.158800e-01      3
   HGA1   CG311   CG321   CG331     9  0.000000e+00  8.368000e-01      3
   HGA1   CG311   CG321    HGA2     9  0.000000e+00  8.158800e-01      3
   HGA1   CG311   CG321   NG2S1     9  0.000000e+00  8.368000e-01      3
   HGA1   CG311   CG321   OG311     9  0.000000e+00  8.158800e-01      3
   HGA1   CG311   CG324    HGA2     9  0.000000e+00  8.158800e-01      3
   HGA1   CG311   CG324   NG3P3     9  0.000000e+00  8.158800e-01      3
   HGA1   CG311   CG331    HGA3     9  0.000000e+00  8.158800e-01      3
   HGA1   CG311   NG2S1   CG2O1     9  0.000000e+00  0.000000e+00      1
   HGA1   CG311   NG2S1    HGP1     9  0.000000e+00  0.000000e+00      1
   HGA1   CG311   OG311    HGP1     9  0.000000e+00  0.000000e+00      3
   HGA1   CG321   NG2S1   CG2O1     9  0.000000e+00  0.000000e+00      1
   HGA1   CG321   NG2S1    HGP1     9  0.000000e+00  0.000000e+00      1
   HGA2   CG321   CG321    HGA2     9  0.000000e+00  9.204800e-01      3
   HGA2   CG321   CG324    HGA2     9  0.000000e+00  8.158800e-01      3
   HGA2   CG321   CG324   NG3P3     9  0.000000e+00  8.158800e-01      3
   HGA2   CG321   CG331    HGA3     9  0.000000e+00  6.694400e-01      3
   HGA2   CG321   NG2S1   CG2O1     9  0.000000e+00  0.000000e+00      3
   HGA2   CG321   NG2S1    HGP1     9  0.000000e+00  0.000000e+00      3
   HGA2   CG321   OG311    HGP1     9  0.000000e+00  7.531200e-01      3
   HGA2   CG324   CG324    HGA2     9  0.000000e+00  8.368000e-01      3
   HGA2   CG324   CG331    HGA3     9  0.000000e+00  6.694400e-01      3
   HGA2   CG324   NG3P3    HGP2     9  0.000000e+00  4.184000e-01      3
   HGA3   CG331   CG331    HGA3     9  0.000000e+00  6.485200e-01      3
   HGA3   CG331   NG2S1   CG2O1     9  0.000000e+00  0.000000e+00      3
   HGA3   CG331   NG2S1    HGP1     9  0.000000e+00  0.000000e+00      3
   HGA3   CG331   OG311    HGP1     9  0.000000e+00  7.531200e-01      3
   HGP1   NG2S1   NG2S1    HGP1     9  0.000000e+00  9.623200e-01      2
   HGP1   NG2S1   NG2S1    HGP1     9  0.000000e+00  1.213360e+00      3
   HGP1   NG2S1   NG2S1    HGP1     9  0.000000e+00  1.460216e+01      1
   HGP1   NG2S1   NG2S1    HGP1     9  1.800000e+02  1.046000e+01      2
   HGP1   NG2S1   OG311    HGP1     9  0.000000e+00  6.845024e+00      1
   HGP1   NG2S1   OG311    HGP1     9  1.800000e+02  2.180701e+00      2
  HGR61  CG2R61  CG2R61   HGR61     9  1.800000e+02  1.004160e+01      2
  NG2S1   CG2O1   CG2O1   OG2D1     9  0.000000e+00  8.368000e-02      2
  NG2S1   CG2O1   CG2O1   OG2D1     9  0.000000e+00  5.857600e-01      6
  NG2S1   CG2O1   CG2O1   OG2D1     9  0.000000e+00  2.133840e+00      3
  NG2S1   CG2O1  CG2R61  CG2R61     9  1.800000e+02  4.184000e+00      2
  NG2S1   CG2O1   CG311   CG311     9  0.000000e+00  0.000000e+00      1
  NG2S1   CG2O1   CG311   CG321     9  0.000000e+00  0.000000e+00      1
  NG2S1   CG2O1   CG311   CG331     9  0.000000e+00  0.000000e+00      1
  NG2S1   CG2O1   CG311    HGA1     9  0.000000e+00  0.000000e+00      1
  NG2S1   CG2O1   CG311   NG2S1     9  0.000000e+00  2.510400e+00      1
  NG2S1   CG2O1   CG311   OG311     9  0.000000e+00  1.908741e+00      3
  NG2S1   CG2O1   CG311   OG311     9  0.000000e+00  1.074619e+01      1
  NG2S1   CG2O1   CG321   CG2O1     9  0.000000e+00  2.092000e-01      4
  NG2S1   CG2O1   CG321   CG2O1     9  0.000000e+00  7.824080e+00      2
  NG2S1   CG2O1   CG321   CG2O1     9  0.000000e+00  1.255200e+01      1
  NG2S1   CG2O1   CG321   CG2O1     9  1.800000e+02  1.171520e+00      3
  NG2S1   CG2O1   CG321  CG2R61     9  0.000000e+00  2.301200e+00      3
  NG2S1   CG2O1   CG321  CG2R61     9  1.800000e+02  8.786400e-01      1
  NG2S1   CG2O1   CG321   CG311     9  0.000000e+00  0.000000e+00      1
  NG2S1   CG2O1   CG321   CG321     9  0.000000e+00  0.000000e+00      1
  NG2S1   CG2O1   CG321   CG324     9  1.800000e+02  2.092000e-01      6
  NG2S1   CG2O1   CG321   CG331     9  0.000000e+00  0.000000e+00      1
  NG2S1   CG2O1   CG321    HGA1     9  0.000000e+00  0.000000e+00      1
  NG2S1   CG2O1   CG321    HGA2     9  0.000000e+00  0.000000e+00      3
  NG2S1   CG2O1   CG321   NG2S1     9  0.000000e+00  2.510400e+00      1
  NG2S1   CG2O1   CG321   OG311     9  0.000000e+00  1.673600e+00      1
  NG2S1   CG2O1   CG324    HGA2     9  0.000000e+00  0.000000e+00      3
  NG2S1   CG2O1   CG324   NG3P3     9  0.000000e+00  1.673600e+00      1
  NG2S1   CG2O1   CG331    HGA3     9  0.000000e+00  0.000000e+00      3
  NG2S1  CG2R61  CG2R61   HGR61     9  1.800000e+02  1.004160e+01      2
  NG2S1  CG2R61  CG2R61   OG311     9  1.800000e+02  1.004160e+01      2
  NG2S1   CG311   CG311    HGA1     9  0.000000e+00  8.368000e-01      3
  NG2S1   CG311   CG311   OG311     9  0.000000e+00  8.368000e-01      3
  NG2S1   CG311   CG321   CG2O1     9  0.000000e+00  8.368000e-01      3
  NG2S1   CG311   CG321  CG2R61     9  0.000000e+00  8.368000e-01      3
  NG2S1   CG311   CG321   CG311     9  0.000000e+00  8.368000e-01      3
  NG2S1   CG311   CG321   CG321     9  0.000000e+00  8.368000e-01      3
  NG2S1   CG311   CG321   CG324     9  0.000000e+00  8.368000e-01      3
  NG2S1   CG311   CG321   CG331     9  0.000000e+00  8.368000e-01      3
  NG2S1   CG311   CG321    HGA2     9  0.000000e+00  8.368000e-01      3
  NG2S1   CG311   CG321   NG2S1     9  0.000000e+00  8.368000e-01      3
  NG2S1   CG311   CG321   OG311     9  0.000000e+00  8.368000e-01      3
  NG2S1   CG311   CG324    HGA2     9  0.000000e+00  8.368000e-01      3
  NG2S1   CG311   CG324   NG3P3     9  0.000000e+00  8.158800e-01      3
  NG2S1   CG311   CG331    HGA3     9  0.000000e+00  8.368000e-01      3
  NG2S1   CG311   NG2S1    HGP1     9  0.000000e+00  7.531200e-01      1
  NG2S1   CG311   NG2S1    HGP1     9  0.000000e+00  4.476880e+00      2
  NG2S1   CG311   OG311    HGP1     9  0.000000e+00  5.857600e-01      3
  NG2S1   CG311   OG311    HGP1     9  0.000000e+00  2.928800e+00      2
  NG2S1   CG311   OG311    HGP1     9  0.000000e+00  5.439200e+00      1
  NG2S1   CG321   CG321    HGA2     9  0.000000e+00  8.158800e-01      3
  NG2S1   CG321   CG321   NG2S1     9  0.000000e+00  7.949600e-01      3
  NG2S1   CG321   CG321   OG311     9  0.000000e+00  8.368000e-01      3
  NG2S1   CG321   CG324    HGA2     9  0.000000e+00  8.368000e-01      3
  NG2S1   CG321   CG331    HGA3     9  0.000000e+00  8.158800e-01      3
  NG3P3   CG324   CG331    HGA3     9  0.000000e+00  8.368000e-01      3
  OG2D1   CG2O1   CG2O1   OG2D1     9  0.000000e+00  2.928800e-01      6
  OG2D1   CG2O1   CG2O1   OG2D1     9  0.000000e+00  8.368000e-01      2
  OG2D1   CG2O1   CG2O1   OG2D1     9  1.800000e+02  1.673600e+00      3
  OG2D1   CG2O1  CG2R61  CG2R61     9  1.800000e+02  4.184000e+00      2
  OG2D1   CG2O1   CG311   CG2O1     9  0.000000e+00  1.506240e+00      4
  OG2D1   CG2O1   CG311   CG2O1     9  0.000000e+00  1.548080e+00      2
  OG2D1   CG2O1   CG311   CG2O1     9  1.800000e+02  5.439200e-01      3
  OG2D1   CG2O1   CG311  CG2R61     9  0.000000e+00  3.932960e+00      3
  OG2D1   CG2O1   CG311  CG2R61     9  1.800000e+02  2.803280e+00      2
  OG2D1   CG2O1   CG311   CG311     9  0.000000e+00  5.857600e+00      1
  OG2D1   CG2O1   CG311   CG321     9  0.000000e+00  5.857600e+00      1
  OG2D1   CG2O1   CG311   CG331     9  0.000000e+00  5.857600e+00      1
  OG2D1   CG2O1   CG311    HGA1     9  0.000000e+00  0.000000e+00      1
  OG2D1   CG2O1   CG311   NG2S1     9  0.000000e+00  0.000000e+00      1
  OG2D1   CG2O1   CG311   OG311     9  1.800000e+02  7.028702e+00      2
  OG2D1   CG2O1   CG321   CG2O1     9  0.000000e+00  3.138000e+00      2
  OG2D1   CG2O1   CG321   CG2O1     9  1.800000e+02  0.000000e+00      4
  OG2D1   CG2O1   CG321   CG2O1     9  1.800000e+02  2.092000e-01      3
  OG2D1   CG2O1   CG321  CG2R61     9  0.000000e+00  3.932960e+00      3
  OG2D1   CG2O1   CG321  CG2R61     9  1.800000e+02  2.803280e+00      2
  OG2D1   CG2O1   CG321   CG311     9  1.800000e+02  2.092000e-01      6
  OG2D1   CG2O1   CG321   CG321     9  1.800000e+02  2.092000e-01      6
  OG2D1   CG2O1   CG321   CG324     9  1.800000e+02  2.092000e-01      6
  OG2D1   CG2O1   CG321   CG331     9  1.800000e+02  2.092000e-01      6
  OG2D1   CG2O1   CG321    HGA2     9  1.800000e+02  0.000000e+00      3
  OG2D1   CG2O1   CG321   NG2S1     9  0.000000e+00  0.000000e+00      1
  OG2D1   CG2O1   CG321   OG311     9  1.800000e+02  2.301200e+00      2
  OG2D1   CG2O1   CG324    HGA2     9  1.800000e+02  0.000000e+00      3
  OG2D1   CG2O1   CG324   NG3P3     9  0.000000e+00  0.000000e+00      1
  OG2D1   CG2O1   CG331    HGA3     9  1.800000e+02  0.000000e+00      3
  OG2D1   CG2O1   NG2S1   CG2O1     9  1.800000e+02  2.426720e+00      2
  OG2D1   CG2O1   NG2S1   CG2O1     9  1.800000e+02  1.046000e+01      2
  OG2D1   CG2O1   NG2S1  CG2R61     9  1.800000e+02  1.046000e+01      2
  OG2D1   CG2O1   NG2S1   CG311     9  1.800000e+02  1.046000e+01      2
  OG2D1   CG2O1   NG2S1   CG321     9  1.800000e+02  1.046000e+01      2
  OG2D1   CG2O1   NG2S1   CG331     9  1.800000e+02  1.046000e+01      2
  OG2D1   CG2O1   NG2S1    HGP1     9  1.800000e+02  1.046000e+01      2
  OG2D1   CG2O1   NG2S1   NG2S1     9  1.800000e+02  9.706880e+00      2
  OG2D1   CG2O1   NG2S1   NG2S1     9  1.800000e+02  1.046000e+01      2
  OG2D1   CG2O1   NG2S1   OG311     9  1.800000e+02  2.372328e-01      2
  OG311  CG2R61  CG2R61   HGR61     9  1.800000e+02  1.004160e+01      2
  OG311  CG2R61  CG2R61   OG311     9  1.800000e+02  1.414527e+01      2
  OG311   CG311   CG311    HGA1     9  0.000000e+00  8.158800e-01      3
  OG311   CG311   CG311   OG311     9  0.000000e+00  8.368000e-01      3
  OG311   CG311   CG321   CG2O1     9  0.000000e+00  8.368000e-01      3
  OG311   CG311   CG321   CG311     9  0.000000e+00  1.673600e+00      5
  OG311   CG311   CG321   CG311     9  0.000000e+00  3.347200e+00      6
  OG311   CG311   CG321   CG311     9  1.800000e+02  8.368000e+00      3
  OG311   CG311   CG321   CG321     9  0.000000e+00  1.673600e+00      3
  OG311   CG311   CG321   CG321     9  0.000000e+00  1.673600e+00      5
  OG311   CG311   CG321   CG321     9  0.000000e+00  2.928800e+00      2
  OG311   CG311   CG321   CG321     9  1.800000e+02  2.092000e+00      1
  OG311   CG311   CG321   CG324     9  0.000000e+00  1.673600e+00      3
  OG311   CG311   CG321   CG324     9  0.000000e+00  1.673600e+00      5
  OG311   CG311   CG321   CG324     9  0.000000e+00  2.928800e+00      2
  OG311   CG311   CG321   CG324     9  1.800000e+02  2.092000e+00      1
  OG311   CG311   CG321   CG331     9  0.000000e+00  5.857600e-01      3
  OG311   CG311   CG321    HGA2     9  1.800000e+02  8.158800e-01      3
  OG311   CG311   CG321   NG2S1     9  0.000000e+00  8.368000e-01      3
  OG311   CG311   CG321   NG2S1     9  0.000000e+00  8.368000e-01      3
  OG311   CG311   CG321   OG311     9  0.000000e+00  8.368000e-01      3
  OG311   CG311   CG324    HGA2     9  0.000000e+00  8.158800e-01      3
  OG311   CG311   CG324   NG3P3     9  0.000000e+00  8.158800e-01      3
  OG311   CG311   CG331    HGA3     9  0.000000e+00  8.368000e-01      3
  OG311   CG311   NG2S1   CG2O1     9  0.000000e+00  7.531200e+00      1
  OG311   CG311   NG2S1    HGP1     9  0.000000e+00  0.000000e+00      1
  OG311   CG311   OG311    HGP1     9  0.000000e+00  1.163570e+00      3
  OG311   CG311   OG311    HGP1     9  0.000000e+00  4.413702e+00      2
  OG311   CG311   OG311    HGP1     9  0.000000e+00  7.673038e+00      1
  OG311   CG321   CG321    HGA2     9  0.000000e+00  8.158800e-01      3
  OG311   CG321   CG321   OG311     9  0.000000e+00  8.368000e-01      3
  OG311   CG321   CG324    HGA2     9  0.000000e+00  8.158800e-01      3
  OG311   CG321   CG324   NG3P3     9  1.800000e+02  2.928800e+00      1
  OG311   CG321   CG331    HGA3     9  0.000000e+00  6.694400e-01      3

[ dihedraltypes ]
; i	j	k	l	func	q0	cq
  CG2O1   CG2O1   NG2S1   OG2D1     2  0.000000e+00  1.004160e+03
  CG2O1  CG2R61   NG2S1   OG2D1     2  0.000000e+00  1.004160e+03
  CG2O1   CG311   NG2S1   OG2D1     2  0.000000e+00  1.004160e+03
  CG2O1   CG321   NG2S1   OG2D1     2  0.000000e+00  1.004160e+03
  CG2O1   CG331   NG2S1   OG2D1     2  0.000000e+00  1.004160e+03
 CG2R61  CG2R61  CG2R61   OG311     2  0.000000e+00  1.255200e+02
