Title
  188
    1PMB     O1    1   1.455   2.419   1.434
    1PMB     O2    2   1.635   2.761   1.738
    1PMB     O3    3   2.082   2.593   1.445
    1PMB     O4    4   1.830   3.007   1.378
    1PMB     O5    5   1.906   2.308   1.302
    1PMB     O6    6   2.352   2.239   1.959
    1PMB     O7    7   2.113   2.971   1.836
    1PMB     O8    8   2.587   2.672   1.364
    1PMB     O9    9   2.200   2.382   1.657
    1PMB    O10   10   1.893   2.156   1.899
    1PMB    O11   11   2.509   3.020   1.589
    1PMB    O12   12   2.477   3.240   1.343
    1PMB    O13   13   2.256   2.731   1.251
    1PMB     N1   14   1.486   2.687   1.588
    1PMB     N2   15   1.662   2.405   1.522
    1PMB     N3   16   1.678   2.985   1.539
    1PMB     N4   17   1.960   2.772   1.457
    1PMB     N5   18   2.041   2.787   1.742
    1PMB     N6   19   1.954   2.259   1.516
    1PMB     N7   20   2.370   2.921   1.725
    1PMB     N8   21   2.151   2.178   1.740
    1PMB     N9   22   1.918   2.372   1.887
    1PMB    N10   23   2.334   2.762   1.454
    1PMB    N11   24   2.371   3.048   1.335
    1PMB    N12   25   1.548   2.283   1.088
    1PMB    N13   26   1.669   2.870   1.185
    1PMB    N14   27   2.530   2.799   2.103
    1PMB    N15   28   2.400   2.283   1.264
    1PMB    N16   29   2.041   2.996   0.992
    1PMB     C1   30   1.483   2.548   1.633
    1PMB     C2   31   1.334   2.516   1.665
    1PMB     C3   32   1.263   2.617   1.758
    1PMB     C4   33   1.925   3.367   1.783
    1PMB     C5   34   2.060   3.306   1.741
    1PMB     C6   35   1.551   2.925   1.582
    1PMB     C7   36   1.714   2.287   1.447
    1PMB     C8   37   2.040   2.660   1.671
    1PMB     C9   38   1.532   2.451   1.522
    1PMB    C10   39   2.085   3.302   1.589
    1PMB    C11   40   1.817   2.788   1.468
    1PMB    C12   41   1.933   2.562   1.729
    1PMB    C13   42   1.559   2.785   1.647
    1PMB    C14   43   2.221   3.240   1.553
    1PMB    C15   44   1.913   3.381   1.937
    1PMB    C16   45   1.477   3.027   1.674
    1PMB    C17   46   1.111   2.599   1.752
    1PMB    C18   47   1.314   2.609   1.903
    1PMB    C19   48   1.637   2.239   1.316
    1PMB    C20   49   2.292   2.818   1.792
    1PMB    C21   50   2.098   2.225   1.507
    1PMB    C22   51   1.741   2.701   1.361
    1PMB    C23   52   2.027   2.673   1.519
    1PMB    C24   53   1.776   2.935   1.462
    1PMB    C25   54   1.973   2.504   1.866
    1PMB    C26   55   1.866   2.287   1.416
    1PMB    C27   56   2.122   2.214   1.879
    1PMB    C28   57   1.805   3.287   1.729
    1PMB    C29   58   2.247   3.251   1.402
    1PMB    C30   59   2.457   2.795   1.526
    1PMB    C31   60   2.143   2.862   1.790
    1PMB    C32   61   2.257   2.963   1.316
    1PMB    C33   62   2.338   2.810   1.941
    1PMB    C34   63   2.183   2.283   1.388
    1PMB    C35   64   2.157   2.268   1.640
    1PMB    C36   65   2.224   2.300   1.956
    1PMB    C37   66   1.628   2.341   1.200
    1PMB    C38   67   1.327   3.027   1.654
    1PMB    C39   68   1.973   2.248   1.892
    1PMB    C40   69   2.447   2.918   1.615
    1PMB    C41   70   2.582   2.795   1.436
    1PMB    C42   71   2.018   3.472   2.001
    1PMB    C43   72   1.747   2.744   1.213
    1PMB    C44   73   2.372   3.180   1.359
    1PMB    C45   74   2.208   2.996   1.170
    1PMB    C46   75   2.286   2.812   1.337
    1PMB    C47   76   2.490   2.786   1.959
    1PMB    C48   77   2.326   2.225   1.381
    1PMB    C49   78   2.181   2.322   2.102
    1PMB    C50   79   2.082   2.926   1.118
    1PMB    C51   80   2.714   2.806   1.512
    1PMB    C52   81   1.242   2.984   1.757
    1PMB    C53   82   1.272   3.081   1.537
    1PMB    C54   83   1.103   2.991   1.742
    1PMB    C55   84   1.133   3.089   1.522
    1PMB    C56   85   1.048   3.043   1.624
    1PMB     H1   86   1.543   2.532   1.725
    1PMB     H2   87   1.324   2.415   1.709
    1PMB     H3   88   1.275   2.516   1.570
    1PMB     H4   89   1.281   2.721   1.723
    1PMB     H5   90   1.920   3.470   1.740
    1PMB     H6   91   2.067   3.203   1.783
    1PMB     H7   92   2.143   3.365   1.785
    1PMB     H8   93   1.491   2.913   1.489
    1PMB     H9   94   1.700   2.202   1.518
    1PMB    H10   95   2.138   2.611   1.686
    1PMB    H11   96   1.408   2.711   1.533
    1PMB    H12   97   2.080   3.406   1.551
    1PMB    H13   98   2.005   3.243   1.539
    1PMB    H14   99   1.792   2.752   1.569
    1PMB    H15  100   1.924   2.476   1.660
    1PMB    H16  101   1.834   2.611   1.738
    1PMB    H17  102   1.719   2.436   1.596
    1PMB    H18  103   2.222   3.134   1.587
    1PMB    H19  104   2.301   3.294   1.608
    1PMB    H20  105   1.918   3.280   1.983
    1PMB    H21  106   1.812   3.423   1.960
    1PMB    H22  107   1.510   3.130   1.649
    1PMB    H23  108   1.501   3.011   1.781
    1PMB    H24  109   1.081   2.498   1.786
    1PMB    H25  110   1.073   2.615   1.649
    1PMB    H26  111   1.060   2.674   1.818
    1PMB    H27  112   1.422   2.631   1.909
    1PMB    H28  113   1.294   2.508   1.945
    1PMB    H29  114   1.260   2.683   1.966
    1PMB    H30  115   2.305   2.720   1.743
    1PMB    H31  116   1.534   2.209   1.347
    1PMB    H32  117   1.685   2.146   1.279
    1PMB    H33  118   2.103   2.114   1.501
    1PMB    H34  119   1.674   3.085   1.542
    1PMB    H35  120   1.634   2.692   1.389
    1PMB    H36  121   1.784   2.599   1.368
    1PMB    H37  122   2.083   2.505   1.874
    1PMB    H38  123   1.936   2.572   1.947
    1PMB    H39  124   1.992   2.774   1.363
    1PMB    H40  125   1.952   2.827   1.763
    1PMB    H41  126   2.127   2.115   1.932
    1PMB    H42  127   1.810   3.182   1.766
    1PMB    H43  128   1.804   3.287   1.618
    1PMB    H44  129   1.710   3.333   1.764
    1PMB    H45  130   2.261   3.359   1.377
    1PMB    H46  131   2.159   3.215   1.346
    1PMB    H47  132   2.474   2.711   1.597
    1PMB    H48  133   1.916   2.245   1.608
    1PMB    H49  134   2.178   2.989   1.390
    1PMB    H50  135   2.281   2.729   1.993
    1PMB    H51  136   2.313   2.907   1.991
    1PMB    H52  137   2.188   2.393   1.396
    1PMB    H53  138   2.133   2.258   1.292
    1PMB    H54  139   2.367   3.011   1.768
    1PMB    H55  140   2.242   2.397   1.906
    1PMB    H56  141   2.130   2.083   1.720
    1PMB    H57  142   1.820   2.368   1.908
    1PMB    H58  143   1.580   2.435   1.232
    1PMB    H59  144   1.727   2.367   1.160
    1PMB    H60  145   2.576   2.879   1.362
    1PMB    H61  146   2.020   3.571   1.951
    1PMB    H62  147   2.120   3.427   1.993
    1PMB    H63  148   1.996   3.487   2.108
    1PMB    H64  149   1.850   2.758   1.179
    1PMB    H65  150   1.702   2.665   1.151
    1PMB    H66  151   2.293   2.977   1.101
    1PMB    H67  152   2.189   3.106   1.168
    1PMB    H68  153   2.326   2.662   1.450
    1PMB    H69  154   2.462   3.017   1.307
    1PMB    H70  155   2.519   2.686   1.924
    1PMB    H71  156   2.550   2.860   1.903
    1PMB    H72  157   2.384   2.248   1.472
    1PMB    H73  158   2.324   2.116   1.368
    1PMB    H74  159   2.258   2.381   2.157
    1PMB    H75  160   2.167   2.225   2.154
    1PMB    H76  161   2.085   2.378   2.109
    1PMB    H77  162   2.102   2.821   1.092
    1PMB    H78  163   1.999   2.931   1.190
    1PMB    H79  164   2.800   2.802   1.441
    1PMB    H80  165   2.726   2.724   1.585
    1PMB    H81  166   2.723   2.903   1.565
    1PMB    H82  167   1.283   2.945   1.849
    1PMB    H83  168   1.335   3.120   1.459
    1PMB    H84  169   1.450   2.267   1.120
    1PMB    H85  170   1.588   2.192   1.059
    1PMB    H86  171   1.713   2.951   1.236
    1PMB    H87  172   1.571   2.861   1.219
    1PMB    H88  173   2.348   2.170   2.026
    1PMB    H89  174   2.670   2.677   1.314
    1PMB    H90  175   1.038   2.958   1.821
    1PMB    H91  176   1.089   3.132   1.433
    1PMB    H92  177   2.479   2.731   2.162
    1PMB    H93  178   2.508   2.895   2.138
    1PMB    H94  179   2.412   2.386   1.276
    1PMB    H95  180   2.347   2.265   1.176
    1PMB    H96  181   0.941   3.051   1.614
    1PMB    H97  182   2.126   3.018   0.936
    1PMB    H98  183   1.995   3.087   1.014
    1PMB    H99  184   1.546   2.346   1.005
    1PMB   H100  185   1.664   2.892   1.084
    1PMB   H101  186   2.632   2.784   2.115
    1PMB   H102  187   2.494   2.240   1.255
    1PMB   H103  188   1.978   2.939   0.932
   3.87924   3.65739   3.16739   0.00000   0.00000   1.29308   0.00000  -1.29308   1.82869
