Title
  188
    1PMB     O1    1   1.492   2.574   2.268 -0.3243  0.3841  0.0610
    1PMB     O2    2   1.561   2.375   1.899  0.3336  0.3985  0.2721
    1PMB     O3    3   2.085   2.616   1.651  0.1991 -1.0680 -0.9507
    1PMB     O4    4   1.716   2.303   1.476 -0.2387 -0.0818  0.2695
    1PMB     O5    5   1.220   2.738   2.196 -0.8132  0.0439  0.4085
    1PMB     O6    6   1.261   3.288   1.716  0.5924 -0.6640  0.7977
    1PMB     O7    7   2.047   2.827   1.188  0.6261 -0.2747 -0.1130
    1PMB     O8    8   2.614   2.425   1.080  0.3259 -0.2867 -0.0145
    1PMB     O9    9   1.398   2.849   1.790  0.8307 -0.0077  0.2078
    1PMB    O10   10   1.662   3.120   1.763 -0.6122 -0.5453 -0.6407
    1PMB    O11   11   2.443   2.642   1.398  0.4547  0.7214  0.0115
    1PMB    O12   12   2.710   3.109   1.284 -0.3347 -0.0395 -0.1070
    1PMB    O13   13   2.438   2.864   1.028  0.2638 -0.3756  0.2501
    1PMB     N1   14   1.701   2.367   2.071 -0.7264  1.6461 -0.0444
    1PMB     N2   15   1.414   2.458   2.097 -0.0692 -0.0341 -0.0975
    1PMB     N3   16   1.730   2.349   1.708  0.0274  0.0753  0.7007
    1PMB     N4   17   1.912   2.550   1.526  0.3046 -0.4514 -0.8058
    1PMB     N5   18   1.967   2.800   1.388  0.1266  0.4107 -0.6830
    1PMB     N6   19   1.353   2.765   2.017 -0.0817 -0.5102  0.1859
    1PMB     N7   20   2.288   2.733   1.258  0.0047  0.3910  0.1089
    1PMB     N8   21   1.384   3.077   1.828 -0.7084  0.5716  0.2951
    1PMB     N9   22   1.611   3.001   1.563 -0.9894 -0.0172 -0.5001
    1PMB    N10   23   2.572   2.708   1.109  0.5143  0.7300  0.1358
    1PMB    N11   24   2.723   2.982   1.104 -0.7786  0.1869  0.1724
    1PMB    N12   25   1.196   2.533   2.377  0.5441 -0.9242 -0.7462
    1PMB    N13   26   1.900   2.183   1.315  0.2870  0.0111 -0.0286
    1PMB    N14   27   2.508   2.891   1.471 -0.7549 -0.6680 -0.0953
    1PMB    N15   28   1.462   3.183   2.265  0.6335 -0.0781  0.3487
    1PMB    N16   29   2.797   2.778   0.650 -0.4656  0.0629 -0.1258
    1PMB     C1   30   1.615   2.382   2.191 -0.1199 -0.0135 -0.0598
    1PMB     C2   31   1.709   2.406   2.306 -0.4402  0.4833 -0.1776
    1PMB     C3   32   1.806   2.292   2.346 -1.0985  0.0892  0.0309
    1PMB     C4   33   2.491   3.567   0.881 -0.4774  0.0182 -0.8946
    1PMB     C5   34   2.508   3.438   0.967 -0.5794 -0.0924 -0.3237
    1PMB     C6   35   1.792   2.324   1.841 -0.5758  0.2625  0.6885
    1PMB     C7   36   1.286   2.535   2.084  0.0944  0.4886  0.3984
    1PMB     C8   37   1.948   2.796   1.530  0.8567  0.1985 -0.3360
    1PMB     C9   38   1.506   2.483   2.185 -0.1337  0.0878  0.0102
    1PMB    C10   39   2.600   3.455   1.091 -0.8394 -0.0182 -0.6784
    1PMB    C11   40   1.922   2.410   1.565 -0.2092 -0.0846  0.3411
    1PMB    C12   41   1.796   2.827   1.563 -0.3297 -0.3559  0.9247
    1PMB    C13   42   1.675   2.358   1.940 -0.4555 -0.0358 -0.3543
    1PMB    C14   43   2.614   3.324   1.178  1.4598 -0.4323 -0.5349
    1PMB    C15   44   2.344   3.591   0.839 -0.3237  0.0748 -0.0071
    1PMB    C16   45   1.856   2.188   1.871 -0.0333 -0.0174  0.0760
    1PMB    C17   46   1.888   2.337   2.466  0.8277 -0.4681  0.7769
    1PMB    C18   47   1.728   2.161   2.378 -0.7243 -0.2495  0.3869
    1PMB    C19   48   1.172   2.449   2.149 -0.3388  0.3443 -0.0302
    1PMB    C20   49   2.208   2.800   1.367  0.6858 -0.6449  0.2930
    1PMB    C21   50   1.334   2.909   2.013 -0.5272 -0.4052  0.5108
    1PMB    C22   51   2.013   2.337   1.468  0.8040  0.0254  1.0697
    1PMB    C23   52   1.990   2.653   1.575  1.2376 -0.8661 -0.2859
    1PMB    C24   53   1.785   2.345   1.578  0.4168  0.2657  0.4569
    1PMB    C25   54   1.747   2.963   1.517  0.1774  0.9877  0.3751
    1PMB    C26   55   1.284   2.689   2.103  0.2991 -0.2243  0.5246
    1PMB    C27   56   1.436   3.123   1.696 -0.2999  0.6469 -0.4088
    1PMB    C28   57   2.589   3.573   0.766  0.2794 -0.6570 -0.8290
    1PMB    C29   58   2.638   3.211   1.081  0.3950 -0.1114 -0.5413
    1PMB    C30   59   2.473   2.606   1.160  0.4462 -0.9171  0.0366
    1PMB    C31   60   2.073   2.810   1.308 -0.0711  0.6462 -0.4094
    1PMB    C32   61   2.661   2.916   0.993 -0.8483  0.2649 -0.2961
    1PMB    C33   62   2.271   2.942   1.405 -0.0047  0.6285 -0.2139
    1PMB    C34   63   1.420   2.982   2.119  0.3145  0.6801  0.3071
    1PMB    C35   64   1.375   2.940   1.868 -0.1103 -1.1059 -0.2402
    1PMB    C36   65   1.398   3.264   1.666 -0.6452 -0.0871  0.3795
    1PMB    C37   66   1.174   2.409   2.301 -0.1490  0.2411 -0.5001
    1PMB    C38   67   1.886   2.100   1.756 -0.3218  0.2297  0.2394
    1PMB    C39   68   1.586   3.085   1.672  0.2085  0.0397  0.8478
    1PMB    C40   69   2.398   2.658   1.284  0.0775 -0.5485  0.1001
    1PMB    C41   70   2.550   2.480   1.195 -0.5594  0.3167  0.4481
    1PMB    C42   71   2.298   3.492   0.730 -0.6617  0.1861 -1.0129
    1PMB    C43   72   1.978   2.314   1.321  0.5174 -0.0909 -0.2691
    1PMB    C44   73   2.693   3.100   1.163  0.4817 -0.3988  0.6504
    1PMB    C45   74   2.763   2.854   0.890  0.0680 -0.4445 -0.4342
    1PMB    C46   75   2.549   2.827   1.048  0.4317 -0.4170  0.6475
    1PMB    C47   76   2.376   2.941   1.521  0.0345  0.4434  0.6190
    1PMB    C48   77   1.373   3.122   2.159  1.2612 -0.5184 -0.3199
    1PMB    C49   78   1.404   3.293   1.510 -0.0364  0.2874 -0.5595
    1PMB    C50   79   2.695   2.808   0.759 -0.6370  0.0777  0.0910
    1PMB    C51   80   2.462   2.362   1.248 -0.0722  0.0727 -0.3919
    1PMB    C52   81   2.011   2.054   1.731  0.5425  0.1813  0.3567
    1PMB    C53   82   1.779   2.049   1.676 -0.2333 -1.0638  0.9154
    1PMB    C54   83   2.034   1.966   1.624  0.0542 -0.7216 -0.2294
    1PMB    C55   84   1.799   1.969   1.565 -0.8247  0.4724  0.2224
    1PMB    C56   85   1.926   1.917   1.547  0.4933  0.7498 -0.6754
    1PMB     H1   86   1.556   2.289   2.201  0.4050 -0.2806  0.5880
    1PMB     H2   87   1.650   2.432   2.396 -0.5427  0.5541 -0.2652
    1PMB     H3   88   1.767   2.498   2.287 -3.1779  1.8487 -2.4051
    1PMB     H4   89   1.871   2.272   2.258 -0.6900  1.1899  0.0767
    1PMB     H5   90   2.517   3.660   0.936  0.7306 -0.4602 -0.6418
    1PMB     H6   91   2.512   3.347   0.904 -2.7449 -0.2152 -0.3303
    1PMB     H7   92   2.414   3.411   1.020  0.0355 -0.0757  0.7847
    1PMB     H8   93   1.860   2.409   1.862 -2.8354  2.4244 -0.4826
    1PMB     H9   94   1.270   2.519   1.976 -0.0435  1.3432  0.2872
    1PMB    H10   95   1.993   2.885   1.579 -3.2886  2.4457 -0.4045
    1PMB    H11   96   1.799   2.365   2.091 -0.1455  3.8102 -2.4905
    1PMB    H12   97   2.562   3.539   1.154  0.1099  0.2602 -0.4627
    1PMB    H13   98   2.701   3.491   1.062  0.4226 -0.5055  2.8123
    1PMB    H14   99   1.971   2.395   1.664  2.5422  2.9381 -0.4860
    1PMB    H15  100   1.778   2.816   1.672  3.0035  1.3227  1.6897
    1PMB    H16  101   1.723   2.755   1.519 -1.1847  1.0752 -0.0364
    1PMB    H17  102   1.439   2.408   2.015  0.2673 -4.2128  2.4518
    1PMB    H18  103   2.536   3.302   1.254 -0.4078 -1.4535 -2.6772
    1PMB    H19  104   2.702   3.348   1.241  1.7393  0.8010 -1.3702
    1PMB    H20  105   2.338   3.693   0.797  1.5973  0.6871  1.1483
    1PMB    H21  106   2.291   3.600   0.936  0.2370 -0.0231  0.3122
    1PMB    H22  107   1.790   2.127   1.937  0.2812 -0.0775  0.3347
    1PMB    H23  108   1.951   2.201   1.928  0.7549  0.3061 -1.3072
    1PMB    H24  109   1.821   2.353   2.552  2.1308 -1.0630  1.9210
    1PMB    H25  110   1.947   2.430   2.452 -2.2334  1.8870  2.9014
    1PMB    H26  111   1.962   2.266   2.509  0.4611 -1.0116  0.5146
    1PMB    H27  112   1.689   2.103   2.291 -1.2020 -1.4989  1.4155
    1PMB    H28  113   1.637   2.178   2.441 -1.4582 -1.6262 -0.2763
    1PMB    H29  114   1.799   2.089   2.424  3.1732  1.9831 -1.8769
    1PMB    H30  115   2.202   2.734   1.456  1.7418  0.0097  0.8632
    1PMB    H31  116   1.163   2.357   2.087 -4.4478  1.2028 -0.9090
    1PMB    H32  117   1.078   2.501   2.121  1.0864  2.7710 -0.3779
    1PMB    H33  118   1.228   2.942   2.025 -0.4281  0.4442 -0.8410
    1PMB    H34  119   1.634   2.328   1.725  0.1505 -1.0877  0.0992
    1PMB    H35  120   2.055   2.242   1.506  1.9841  1.1183  2.5930
    1PMB    H36  121   2.100   2.405   1.458  1.1937 -0.7305 -0.8230
    1PMB    H37  122   1.825   3.042   1.519  2.4161 -1.1333 -1.1244
    1PMB    H38  123   1.741   2.948   1.407 -1.2046 -1.5716  0.7637
    1PMB    H39  124   1.822   2.575   1.493 -0.0699 -0.3288  0.2863
    1PMB    H40  125   1.878   2.809   1.343  1.1112 -0.2397 -2.8328
    1PMB    H41  126   1.390   3.048   1.628 -0.0031 -0.7557  0.9056
    1PMB    H42  127   2.583   3.477   0.710 -0.2594 -2.0698  1.5706
    1PMB    H43  128   2.689   3.590   0.811 -1.2474 -0.9753  2.7927
    1PMB    H44  129   2.575   3.658   0.695  1.7709  0.6295  0.3872
    1PMB    H45  130   2.714   3.255   1.012  1.0223  1.8285  1.3061
    1PMB    H46  131   2.543   3.183   1.032 -0.3767  0.5323  0.5542
    1PMB    H47  132   2.403   2.590   1.075 -0.2224 -1.8360  0.7462
    1PMB    H48  133   1.408   2.729   1.942 -0.1785  0.9138 -0.5903
    1PMB    H49  134   2.606   2.993   0.935 -0.7605  0.1885 -0.4807
    1PMB    H50  135   2.193   3.017   1.432 -1.6490 -0.1729 -2.5830
    1PMB    H51  136   2.310   2.988   1.312 -1.8697  2.9110  0.0843
    1PMB    H52  137   1.529   2.990   2.097 -0.1209  4.3734 -0.9541
    1PMB    H53  138   1.432   2.908   2.201  0.7576 -0.2759 -0.6122
    1PMB    H54  139   2.279   2.767   1.165  3.5088 -1.4866 -1.0436
    1PMB    H55  140   1.473   3.320   1.726 -0.2082  1.1336 -1.2547
    1PMB    H56  141   1.338   3.150   1.877  1.0937  1.0527  1.3281
    1PMB    H57  142   1.532   2.995   1.501 -1.8221  2.0699  0.3381
    1PMB    H58  143   1.075   2.365   2.323 -1.3067  1.0484 -3.8025
    1PMB    H59  144   1.251   2.337   2.331 -0.3813  0.2463  0.1253
    1PMB    H60  145   2.619   2.502   1.279 -0.8044  4.0848 -0.2480
    1PMB    H61  146   2.195   3.501   0.689 -1.6808 -1.1588  1.1470
    1PMB    H62  147   2.310   3.388   0.769  1.0902  0.1707 -1.5507
    1PMB    H63  148   2.369   3.500   0.645  0.0336 -0.1537 -0.4694
    1PMB    H64  149   1.910   2.396   1.292  1.1332  0.7167  0.5527
    1PMB    H65  150   2.061   2.302   1.251 -0.1426  0.5299 -1.1685
    1PMB    H66  151   2.820   2.778   0.949  0.1157  1.5500  2.1992
    1PMB    H67  152   2.834   2.929   0.850  1.4416 -1.5024 -0.0388
    1PMB    H68  153   2.667   2.678   1.114  0.7557  1.6504  1.3196
    1PMB    H69  154   2.773   2.922   1.165 -0.8433 -0.6085 -0.5528
    1PMB    H70  155   2.391   3.043   1.558 -3.6617  1.8414 -1.4332
    1PMB    H71  156   2.335   2.879   1.602 -0.4549 -1.2419 -0.8777
    1PMB    H72  157   1.386   3.180   2.066  1.3520 -2.5510 -1.6110
    1PMB    H73  158   1.271   3.120   2.200  1.8826 -0.7931  1.2122
    1PMB    H74  159   1.374   3.397   1.489  0.2924  0.4835 -0.0559
    1PMB    H75  160   1.324   3.232   1.462  0.3697  1.0863 -2.2760
    1PMB    H76  161   1.498   3.266   1.456 -0.5715 -1.4100 -0.6925
    1PMB    H77  162   2.629   2.721   0.769  0.8601 -0.9961  0.7034
    1PMB    H78  163   2.637   2.895   0.724  1.6848  2.0645  1.0395
    1PMB    H79  164   2.517   2.267   1.264 -0.4291  0.1596  1.5053
    1PMB    H80  165   2.393   2.320   1.171  1.3722  0.6668 -2.0401
    1PMB    H81  166   2.418   2.377   1.349 -0.0361  1.3374 -0.5562
    1PMB    H82  167   2.091   2.083   1.797  3.2984 -2.5864 -1.6071
    1PMB    H83  168   1.681   2.094   1.684  0.4657  0.7422 -0.2691
    1PMB    H84  169   1.196   2.518   2.479 -1.7681  0.1582 -0.5409
    1PMB    H85  170   1.118   2.598   2.353 -0.9381 -2.3291  0.1436
    1PMB    H86  171   1.840   2.174   1.231  0.9751  1.5573 -0.6908
    1PMB    H87  172   1.842   2.178   1.402  0.1771  0.0869 -0.0969
    1PMB    H88  173   1.219   3.291   1.629  4.6476 -0.9004 -1.3024
    1PMB    H89  174   2.679   2.364   1.114  2.9308  1.7855 -1.0837
    1PMB    H90  175   2.132   1.926   1.600  0.9432  1.3754 -0.1872
    1PMB    H91  176   1.720   1.941   1.497  0.5490 -0.1968 -1.1236
    1PMB    H92  177   2.529   2.951   1.388  0.1630  2.4327  2.2552
    1PMB    H93  178   2.502   2.790   1.447 -0.7548 -0.6755 -0.0643
    1PMB    H94  179   1.553   3.213   2.224 -0.1303 -0.0175 -1.3675
    1PMB    H95  180   1.497   3.115   2.335  1.5841 -0.8258 -0.8147
    1PMB    H96  181   1.938   1.848   1.464 -1.4353 -1.7400  1.0483
    1PMB    H97  182   2.753   2.734   0.567 -1.4303  0.0021  0.4010
    1PMB    H98  183   2.862   2.704   0.684  0.1719  0.6797  0.0052
    1PMB    H99  184   1.283   2.581   2.345  0.3956 -1.9935 -2.8139
    1PMB   H100  185   1.964   2.101   1.322  0.0517 -0.1021  0.9969
    1PMB   H101  186   2.580   2.896   1.545 -0.7650 -0.7127 -0.0829
    1PMB   H102  187   1.415   3.260   2.316  0.3688 -0.6570  0.9920
    1PMB   H103  188   2.847   2.867   0.632 -0.5899  0.2682  0.5057
   3.87924   3.65739   3.16739   0.00000   0.00000   1.29308   0.00000  -1.29308   1.82869
