God Rules Over Mankind, Animals, Cosmos and Such
  188
    1PMB     O1    1   1.463   2.335   1.524
    1PMB     O2    2   1.610   2.777   1.751
    1PMB     O3    3   2.053   2.587   1.443
    1PMB     O4    4   1.860   3.016   1.405
    1PMB     O5    5   1.904   2.211   1.311
    1PMB     O6    6   2.355   2.254   1.978
    1PMB     O7    7   2.111   2.964   1.842
    1PMB     O8    8   2.591   2.660   1.366
    1PMB     O9    9   2.209   2.386   1.659
    1PMB    O10   10   1.910   2.135   1.903
    1PMB    O11   11   2.505   3.014   1.584
    1PMB    O12   12   2.462   3.220   1.320
    1PMB    O13   13   2.255   2.707   1.269
    1PMB     N1   14   1.511   2.678   1.576
    1PMB     N2   15   1.674   2.405   1.514
    1PMB     N3   16   1.677   2.989   1.531
    1PMB     N4   17   1.965   2.784   1.483
    1PMB     N5   18   2.042   2.778   1.748
    1PMB     N6   19   1.960   2.271   1.519
    1PMB     N7   20   2.366   2.916   1.721
    1PMB     N8   21   2.177   2.181   1.744
    1PMB     N9   22   1.917   2.348   1.855
    1PMB    N10   23   2.336   2.741   1.470
    1PMB    N11   24   2.354   3.030   1.338
    1PMB    N12   25   1.582   2.344   1.080
    1PMB    N13   26   1.708   2.859   1.178
    1PMB    N14   27   2.533   2.803   2.103
    1PMB    N15   28   2.380   2.297   1.245
    1PMB    N16   29   1.980   2.956   1.052
    1PMB     C1   30   1.492   2.545   1.635
    1PMB     C2   31   1.338   2.530   1.649
    1PMB     C3   32   1.269   2.630   1.744
    1PMB     C4   33   1.923   3.367   1.779
    1PMB     C5   34   2.058   3.307   1.735
    1PMB     C6   35   1.550   2.925   1.570
    1PMB     C7   36   1.716   2.281   1.444
    1PMB     C8   37   2.041   2.652   1.675
    1PMB     C9   38   1.544   2.423   1.554
    1PMB    C10   39   2.080   3.302   1.584
    1PMB    C11   40   1.822   2.795   1.477
    1PMB    C12   41   1.928   2.559   1.726
    1PMB    C13   42   1.556   2.788   1.642
    1PMB    C14   43   2.218   3.245   1.549
    1PMB    C15   44   1.916   3.380   1.933
    1PMB    C16   45   1.476   3.032   1.656
    1PMB    C17   46   1.116   2.617   1.736
    1PMB    C18   47   1.316   2.613   1.889
    1PMB    C19   48   1.641   2.258   1.306
    1PMB    C20   49   2.292   2.815   1.795
    1PMB    C21   50   2.102   2.230   1.511
    1PMB    C22   51   1.748   2.705   1.371
    1PMB    C23   52   2.021   2.672   1.527
    1PMB    C24   53   1.786   2.940   1.471
    1PMB    C25   54   1.962   2.486   1.856
    1PMB    C26   55   1.868   2.253   1.421
    1PMB    C27   56   2.134   2.213   1.881
    1PMB    C28   57   1.803   3.285   1.727
    1PMB    C29   58   2.239   3.245   1.397
    1PMB    C30   59   2.463   2.784   1.530
    1PMB    C31   60   2.143   2.854   1.795
    1PMB    C32   61   2.241   2.940   1.342
    1PMB    C33   62   2.341   2.818   1.944
    1PMB    C34   63   2.181   2.291   1.390
    1PMB    C35   64   2.169   2.271   1.643
    1PMB    C36   65   2.225   2.307   1.965
    1PMB    C37   66   1.662   2.370   1.204
    1PMB    C38   67   1.326   3.033   1.641
    1PMB    C39   68   1.982   2.234   1.884
    1PMB    C40   69   2.446   2.910   1.613
    1PMB    C41   70   2.578   2.788   1.426
    1PMB    C42   71   2.026   3.468   1.994
    1PMB    C43   72   1.760   2.725   1.219
    1PMB    C44   73   2.357   3.164   1.351
    1PMB    C45   74   2.160   2.977   1.213
    1PMB    C46   75   2.281   2.790   1.356
    1PMB    C47   76   2.492   2.792   1.959
    1PMB    C48   77   2.321   2.231   1.366
    1PMB    C49   78   2.173   2.330   2.108
    1PMB    C50   79   2.057   2.882   1.157
    1PMB    C51   80   2.717   2.823   1.482
    1PMB    C52   81   1.246   2.989   1.747
    1PMB    C53   82   1.266   3.090   1.527
    1PMB    C54   83   1.106   2.997   1.738
    1PMB    C55   84   1.126   3.100   1.519
    1PMB    C56   85   1.047   3.053   1.625
    1PMB     H1   86   1.539   2.539   1.736
    1PMB     H2   87   1.310   2.429   1.685
    1PMB     H3   88   1.292   2.543   1.548
    1PMB     H4   89   1.293   2.734   1.712
    1PMB     H5   90   1.915   3.470   1.737
    1PMB     H6   91   2.066   3.204   1.777
    1PMB     H7   92   2.141   3.368   1.777
    1PMB     H8   93   1.492   2.911   1.475
    1PMB     H9   94   1.684   2.196   1.510
    1PMB    H10   95   2.139   2.602   1.688
    1PMB    H11   96   1.461   2.689   1.491
    1PMB    H12   97   2.070   3.405   1.542
    1PMB    H13   98   2.002   3.238   1.536
    1PMB    H14   99   1.790   2.761   1.578
    1PMB    H15  100   1.909   2.480   1.650
    1PMB    H16  101   1.833   2.615   1.739
    1PMB    H17  102   1.744   2.470   1.542
    1PMB    H18  103   2.226   3.143   1.592
    1PMB    H19  104   2.297   3.308   1.597
    1PMB    H20  105   1.922   3.278   1.978
    1PMB    H21  106   1.817   3.423   1.961
    1PMB    H22  107   1.509   3.134   1.627
    1PMB    H23  108   1.503   3.020   1.764
    1PMB    H24  109   1.084   2.514   1.763
    1PMB    H25  110   1.079   2.639   1.633
    1PMB    H26  111   1.067   2.688   1.806
    1PMB    H27  112   1.425   2.632   1.898
    1PMB    H28  113   1.295   2.510   1.924
    1PMB    H29  114   1.264   2.684   1.956
    1PMB    H30  115   2.307   2.714   1.752
    1PMB    H31  116   1.532   2.248   1.325
    1PMB    H32  117   1.672   2.160   1.263
    1PMB    H33  118   2.105   2.119   1.504
    1PMB    H34  119   1.675   3.088   1.543
    1PMB    H35  120   1.639   2.713   1.386
    1PMB    H36  121   1.778   2.600   1.392
    1PMB    H37  122   2.071   2.493   1.871
    1PMB    H38  123   1.914   2.539   1.941
    1PMB    H39  124   2.015   2.836   1.415
    1PMB    H40  125   1.953   2.818   1.767
    1PMB    H41  126   2.144   2.115   1.934
    1PMB    H42  127   1.808   3.181   1.765
    1PMB    H43  128   1.802   3.283   1.616
    1PMB    H44  129   1.707   3.331   1.761
    1PMB    H45  130   2.255   3.349   1.363
    1PMB    H46  131   2.145   3.213   1.351
    1PMB    H47  132   2.492   2.704   1.603
    1PMB    H48  133   1.931   2.301   1.609
    1PMB    H49  134   2.181   2.964   1.433
    1PMB    H50  135   2.284   2.743   2.003
    1PMB    H51  136   2.319   2.919   1.986
    1PMB    H52  137   2.191   2.401   1.405
    1PMB    H53  138   2.123   2.276   1.297
    1PMB    H54  139   2.356   3.009   1.757
    1PMB    H55  140   2.240   2.404   1.914
    1PMB    H56  141   2.175   2.084   1.725
    1PMB    H57  142   1.818   2.336   1.856
    1PMB    H58  143   1.627   2.465   1.247
    1PMB    H59  144   1.768   2.381   1.175
    1PMB    H60  145   2.554   2.861   1.346
    1PMB    H61  146   2.031   3.566   1.943
    1PMB    H62  147   2.126   3.419   1.985
    1PMB    H63  148   2.007   3.485   2.102
    1PMB    H64  149   1.861   2.707   1.182
    1PMB    H65  150   1.697   2.651   1.167
    1PMB    H66  151   2.233   3.002   1.132
    1PMB    H67  152   2.103   3.069   1.237
    1PMB    H68  153   2.332   2.641   1.471
    1PMB    H69  154   2.442   2.995   1.309
    1PMB    H70  155   2.519   2.691   1.924
    1PMB    H71  156   2.553   2.865   1.903
    1PMB    H72  157   2.389   2.248   1.451
    1PMB    H73  158   2.315   2.123   1.346
    1PMB    H74  159   2.241   2.398   2.163
    1PMB    H75  160   2.167   2.235   2.165
    1PMB    H76  161   2.072   2.376   2.109
    1PMB    H77  162   2.099   2.791   1.111
    1PMB    H78  163   1.990   2.853   1.238
    1PMB    H79  164   2.790   2.827   1.398
    1PMB    H80  165   2.752   2.749   1.556
    1PMB    H81  166   2.718   2.924   1.528
    1PMB    H82  167   1.291   2.947   1.836
    1PMB    H83  168   1.326   3.129   1.447
    1PMB    H84  169   1.481   2.338   1.104
    1PMB    H85  170   1.610   2.252   1.039
    1PMB    H86  171   1.760   2.935   1.226
    1PMB    H87  172   1.608   2.868   1.206
    1PMB    H88  173   2.349   2.178   2.038
    1PMB    H89  174   2.666   2.668   1.306
    1PMB    H90  175   1.045   2.962   1.820
    1PMB    H91  176   1.080   3.146   1.433
    1PMB    H92  177   2.480   2.734   2.161
    1PMB    H93  178   2.512   2.899   2.139
    1PMB    H94  179   2.387   2.400   1.261
    1PMB    H95  180   2.318   2.281   1.163
    1PMB    H96  181   0.939   3.061   1.619
    1PMB    H97  182   2.048   3.001   0.988
    1PMB    H98  183   1.925   3.033   1.096
    1PMB    H99  184   1.595   2.417   1.008
    1PMB   H100  185   1.710   2.871   1.074
    1PMB   H101  186   2.635   2.785   2.114
    1PMB   H102  187   2.475   2.259   1.224
    1PMB   H103  188   1.921   2.893   0.996
   3.87924   3.65739   3.16739   0.00000   0.00000   1.29308   0.00000  -1.29308   1.82869
