; PDL_H_optimized_nopd_GMX_OPLS.itp created by acpype (v: 2022.6.6) on Sun Apr 26 17:04:31 2026

; For OPLS atomtypes manual fine tuning
; AC_at:OPLS_at:OPLScode: Possible_Alternatives (see ffoplsaa.atp and ffoplsaanb.itp)
; cc:C*:opls_500: ['506', '507', '508', '514']
; c:C:opls_235: ['271']
; n1:x:opls_x: []
; nf:x:opls_x: []
; n:N:opls_237: ['238', '239']
; o:O:opls_236: ['272']
; n2:x:opls_x: []
; c3:CT:opls_135: ['136', '137', '149', '157', '158', '206', '209', '210', '223B', '224B', '245', '246', '274', '283', '284', '285', '292', '292B', '293B', '296', '307', '308', '505']
; ca:CA:opls_145: ['166', '501', '502']
; nv:x:opls_x: []
; h1:HC:opls_140: []
; ha:HA:opls_146: []
; hn:H:opls_240: ['241', '290', '301', '304', '310', '504', '513']

[ moleculetype ]
;name            nrexcl
 PDL_H_optimized_nopd 3

[ atoms ]
;   nr  type  resi  res  atom  cgnr     charge      mass       ; qtot   bond_type
     1 opls_500     1   LIG     C    1    -0.113000     12.01100 ; qtot -0.113  C*  
     2 opls_500     1   LIG    C1    2    -0.113000     12.01100 ; qtot -0.226  C*  
     3 opls_235     1   LIG    C2    3     0.751200     12.01100 ; qtot  0.525  C   
     4 opls_235     1   LIG    C3    4     0.751200     12.01100 ; qtot  1.276  C   
     5 opls_500     1   LIG    C4    5     0.175600     12.01100 ; qtot  1.452  C*  
     6 opls_500     1   LIG    C5    6     0.175600     12.01100 ; qtot  1.628  C*  
     7 opls_x     1   LIG     N    7    -0.056000      0.00000 ; qtot  1.572  x   
     8 opls_x     1   LIG    N1    8    -0.056000      0.00000 ; qtot  1.516  x   
     9 opls_x     1   LIG    N2    9    -0.149400      0.00000 ; qtot  1.366  x   
    10 opls_x     1   LIG    N3   10    -0.149400      0.00000 ; qtot  1.217  x   
    11 opls_237     1   LIG    N4   11    -0.325000     14.00670 ; qtot  0.892  N   
    12 opls_237     1   LIG    N5   12    -0.325000     14.00670 ; qtot  0.567  N   
    13 opls_237     1   LIG    N6   13    -0.501400     14.00670 ; qtot  0.065  N   
    14 opls_237     1   LIG    N7   14    -0.501400     14.00670 ; qtot -0.436  N   
    15 opls_236     1   LIG     O   15    -0.591500     15.99940 ; qtot -1.027  O   
    16 opls_236     1   LIG    O1   16    -0.591500     15.99940 ; qtot -1.619  O   
    17 opls_236     1   LIG    O2   17    -0.573500     15.99940 ; qtot -2.192  O   
    18 opls_236     1   LIG    O3   18    -0.573500     15.99940 ; qtot -2.766  O   
    19 opls_x     1   LIG    N8   19    -0.135900      0.00000 ; qtot -2.902  x   
    20 opls_x     1   LIG    N9   20    -0.135900      0.00000 ; qtot -3.038  x   
    21 opls_235     1   LIG    C6   21     0.817501     12.01100 ; qtot -2.220  C   
    22 opls_235     1   LIG    C7   22     0.817501     12.01100 ; qtot -1.403  C   
    23 opls_135     1   LIG    C8   23     0.080300     12.01100 ; qtot -1.322  CT  
    24 opls_135     1   LIG    C9   24     0.080300     12.01100 ; qtot -1.242  CT  
    25 opls_135     1   LIG   C10   25     0.074300     12.01100 ; qtot -1.168  CT  
    26 opls_135     1   LIG   C11   26     0.074300     12.01100 ; qtot -1.094  CT  
    27 opls_145     1   LIG   C12   27     0.004600     12.01100 ; qtot -1.089  CA  
    28 opls_145     1   LIG   C13   28    -0.088000     12.01100 ; qtot -1.177  CA  
    29 opls_145     1   LIG   C14   29    -0.190500     12.01100 ; qtot -1.367  CA  
    30 opls_145     1   LIG   C15   30     0.155600     12.01100 ; qtot -1.212  CA  
    31 opls_145     1   LIG   C16   31    -0.190500     12.01100 ; qtot -1.402  CA  
    32 opls_145     1   LIG   C17   32    -0.088000     12.01100 ; qtot -1.490  CA  
    33 opls_x     1   LIG   N10   33    -0.806200      0.00000 ; qtot -2.297  x   
    34 opls_145     1   LIG   C18   34     0.004600     12.01100 ; qtot -2.292  CA  
    35 opls_145     1   LIG   C19   35    -0.088000     12.01100 ; qtot -2.380  CA  
    36 opls_145     1   LIG   C20   36    -0.190500     12.01100 ; qtot -2.570  CA  
    37 opls_145     1   LIG   C21   37     0.155600     12.01100 ; qtot -2.415  CA  
    38 opls_145     1   LIG   C22   38    -0.190500     12.01100 ; qtot -2.605  CA  
    39 opls_145     1   LIG   C23   39    -0.088000     12.01100 ; qtot -2.693  CA  
    40 opls_x     1   LIG   N11   40    -0.806200      0.00000 ; qtot -3.500  x   
    41 opls_140     1   LIG     H   41     0.066700      1.00800 ; qtot -3.433  HC  
    42 opls_140     1   LIG    H1   42     0.066700      1.00800 ; qtot -3.366  HC  
    43 opls_140     1   LIG    H2   43     0.066700      1.00800 ; qtot -3.299  HC  
    44 opls_140     1   LIG    H3   44     0.066700      1.00800 ; qtot -3.233  HC  
    45 opls_140     1   LIG    H4   45     0.066700      1.00800 ; qtot -3.166  HC  
    46 opls_140     1   LIG    H5   46     0.066700      1.00800 ; qtot -3.099  HC  
    47 opls_140     1   LIG    H6   47     0.068033      1.00800 ; qtot -3.031  HC  
    48 opls_140     1   LIG    H7   48     0.068033      1.00800 ; qtot -2.963  HC  
    49 opls_140     1   LIG    H8   49     0.068033      1.00800 ; qtot -2.895  HC  
    50 opls_140     1   LIG    H9   50     0.068033      1.00800 ; qtot -2.827  HC  
    51 opls_140     1   LIG   H10   51     0.068033      1.00800 ; qtot -2.759  HC  
    52 opls_140     1   LIG   H11   52     0.068033      1.00800 ; qtot -2.691  HC  
    53 opls_146     1   LIG   H12   53     0.136500      1.00800 ; qtot -2.555  HA  
    54 opls_146     1   LIG   H13   54     0.137000      1.00800 ; qtot -2.418  HA  
    55 opls_146     1   LIG   H14   55     0.137000      1.00800 ; qtot -2.281  HA  
    56 opls_146     1   LIG   H15   56     0.136500      1.00800 ; qtot -2.144  HA  
    57 opls_240     1   LIG   H16   57     0.399300      1.00800 ; qtot -1.745  H   
    58 opls_240     1   LIG   H17   58     0.399300      1.00800 ; qtot -1.346  H   
    59 opls_146     1   LIG   H18   59     0.136500      1.00800 ; qtot -1.209  HA  
    60 opls_146     1   LIG   H19   60     0.137000      1.00800 ; qtot -1.072  HA  
    61 opls_146     1   LIG   H20   61     0.137000      1.00800 ; qtot -0.935  HA  
    62 opls_146     1   LIG   H21   62     0.136500      1.00800 ; qtot -0.799  HA  
    63 opls_240     1   LIG   H22   63     0.399300      1.00800 ; qtot -0.399  H   
    64 opls_240     1   LIG   H23   64     0.399300      1.00800 ; qtot -0.000  H   

[ bonds ]
;   ai     aj funct   r             k
     1      5   1 ;    1.4274e-01    2.6947e+05 ;      C - C4         C* - C*    
     1      7   1 ;    1.3179e-01    3.4861e+05 ;      C - N          C* - x     
     1     11   1 ;    1.3837e-01    2.7753e+05 ;      C - N4         C* - N     
     2      6   1 ;    1.4274e-01    2.6947e+05 ;     C1 - C5         C* - C*    
     2      8   1 ;    1.3179e-01    3.4861e+05 ;     C1 - N1         C* - x     
     2     12   1 ;    1.3837e-01    2.7753e+05 ;     C1 - N5         C* - N     
     3      5   1 ;    1.4687e-01    2.3579e+05 ;     C2 - C4          C - C*    
     3     13   1 ;    1.3967e-01    2.6565e+05 ;     C2 - N6          C - N     
     3     17   1 ;    1.2190e-01    4.9421e+05 ;     C2 - O2          C - O     
     4      6   1 ;    1.4687e-01    2.3579e+05 ;     C3 - C5          C - C*    
     4     14   1 ;    1.3967e-01    2.6565e+05 ;     C3 - N7          C - N     
     4     18   1 ;    1.2190e-01    4.9421e+05 ;     C3 - O3          C - O     
     5      9   1 ;    1.2923e-01    3.8213e+05 ;     C4 - N2         C* - x     
     6     10   1 ;    1.2923e-01    3.8213e+05 ;     C5 - N3         C* - x     
     9     19   1 ;    1.2630e-01    3.4005e+05 ;     N2 - N8          x - x     
    10     20   1 ;    1.2630e-01    3.4005e+05 ;     N3 - N9          x - x     
    11     21   1 ;    1.3967e-01    2.6565e+05 ;     N4 - C6          N - C     
    11     25   1 ;    1.4643e-01    2.1293e+05 ;     N4 - C10         N - CT    
    12     22   1 ;    1.3967e-01    2.6565e+05 ;     N5 - C7          N - C     
    12     26   1 ;    1.4643e-01    2.1293e+05 ;     N5 - C11         N - CT    
    13     21   1 ;    1.3967e-01    2.6565e+05 ;     N6 - C6          N - C     
    13     23   1 ;    1.4643e-01    2.1293e+05 ;     N6 - C8          N - CT    
    14     22   1 ;    1.3967e-01    2.6565e+05 ;     N7 - C7          N - C     
    14     24   1 ;    1.4643e-01    2.1293e+05 ;     N7 - C9          N - CT    
    15     21   1 ;    1.2190e-01    4.9421e+05 ;      O - C6          O - C     
    16     22   1 ;    1.2190e-01    4.9421e+05 ;     O1 - C7          O - C     
    19     27   1 ;    1.3484e-01    3.1321e+05 ;     N8 - C12         x - CA    
    20     34   1 ;    1.3484e-01    3.1321e+05 ;     N9 - C18         x - CA    
    23     41   1 ;    1.0969e-01    2.8804e+05 ;     C8 - H          CT - HC    
    23     42   1 ;    1.0969e-01    2.8804e+05 ;     C8 - H1         CT - HC    
    23     43   1 ;    1.0969e-01    2.8804e+05 ;     C8 - H2         CT - HC    
    24     44   1 ;    1.0969e-01    2.8804e+05 ;     C9 - H3         CT - HC    
    24     45   1 ;    1.0969e-01    2.8804e+05 ;     C9 - H4         CT - HC    
    24     46   1 ;    1.0969e-01    2.8804e+05 ;     C9 - H5         CT - HC    
    25     47   1 ;    1.0969e-01    2.8804e+05 ;    C10 - H6         CT - HC    
    25     48   1 ;    1.0969e-01    2.8804e+05 ;    C10 - H7         CT - HC    
    25     49   1 ;    1.0969e-01    2.8804e+05 ;    C10 - H8         CT - HC    
    26     50   1 ;    1.0969e-01    2.8804e+05 ;    C11 - H9         CT - HC    
    26     51   1 ;    1.0969e-01    2.8804e+05 ;    C11 - H10        CT - HC    
    26     52   1 ;    1.0969e-01    2.8804e+05 ;    C11 - H11        CT - HC    
    27     28   1 ;    1.3986e-01    2.9644e+05 ;    C12 - C13        CA - CA    
    27     32   1 ;    1.3986e-01    2.9644e+05 ;    C12 - C17        CA - CA    
    28     29   1 ;    1.3986e-01    2.9644e+05 ;    C13 - C14        CA - CA    
    28     53   1 ;    1.0860e-01    3.0183e+05 ;    C13 - H12        CA - HA    
    29     30   1 ;    1.3986e-01    2.9644e+05 ;    C14 - C15        CA - CA    
    29     54   1 ;    1.0860e-01    3.0183e+05 ;    C14 - H13        CA - HA    
    30     31   1 ;    1.3986e-01    2.9644e+05 ;    C15 - C16        CA - CA    
    30     33   1 ;    1.3744e-01    2.8644e+05 ;    C15 - N10        CA - x     
    31     32   1 ;    1.3986e-01    2.9644e+05 ;    C16 - C17        CA - CA    
    31     55   1 ;    1.0860e-01    3.0183e+05 ;    C16 - H14        CA - HA    
    32     56   1 ;    1.0860e-01    3.0183e+05 ;    C17 - H15        CA - HA    
    33     57   1 ;    1.0114e-01    3.9961e+05 ;    N10 - H16         x - H     
    33     58   1 ;    1.0114e-01    3.9961e+05 ;    N10 - H17         x - H     
    34     35   1 ;    1.3986e-01    2.9644e+05 ;    C18 - C19        CA - CA    
    34     39   1 ;    1.3986e-01    2.9644e+05 ;    C18 - C23        CA - CA    
    35     36   1 ;    1.3986e-01    2.9644e+05 ;    C19 - C20        CA - CA    
    35     59   1 ;    1.0860e-01    3.0183e+05 ;    C19 - H18        CA - HA    
    36     37   1 ;    1.3986e-01    2.9644e+05 ;    C20 - C21        CA - CA    
    36     60   1 ;    1.0860e-01    3.0183e+05 ;    C20 - H19        CA - HA    
    37     38   1 ;    1.3986e-01    2.9644e+05 ;    C21 - C22        CA - CA    
    37     40   1 ;    1.3744e-01    2.8644e+05 ;    C21 - N11        CA - x     
    38     39   1 ;    1.3986e-01    2.9644e+05 ;    C22 - C23        CA - CA    
    38     61   1 ;    1.0860e-01    3.0183e+05 ;    C22 - H20        CA - HA    
    39     62   1 ;    1.0860e-01    3.0183e+05 ;    C23 - H21        CA - HA    
    40     63   1 ;    1.0114e-01    3.9961e+05 ;    N11 - H22         x - H     
    40     64   1 ;    1.0114e-01    3.9961e+05 ;    N11 - H23         x - H     

[ pairs ]
;   ai     aj    funct
     1     13      1 ;      C - N6    
     1     15      1 ;      C - O     
     1     17      1 ;      C - O2    
     1     19      1 ;      C - N8    
     1     47      1 ;      C - H6    
     1     48      1 ;      C - H7    
     1     49      1 ;      C - H8    
     2     14      1 ;     C1 - N7    
     2     16      1 ;     C1 - O1    
     2     18      1 ;     C1 - O3    
     2     20      1 ;     C1 - N9    
     2     50      1 ;     C1 - H9    
     2     51      1 ;     C1 - H10   
     2     52      1 ;     C1 - H11   
     3     15      1 ;     C2 - O     
     3     19      1 ;     C2 - N8    
     3     41      1 ;     C2 - H     
     3     42      1 ;     C2 - H1    
     3     43      1 ;     C2 - H2    
     4      8      1 ;     C3 - N1    
     4     12      1 ;     C3 - N5    
     4     16      1 ;     C3 - O1    
     4     20      1 ;     C3 - N9    
     4     44      1 ;     C3 - H3    
     4     45      1 ;     C3 - H4    
     4     46      1 ;     C3 - H5    
     5     21      1 ;     C4 - C6    
     5     23      1 ;     C4 - C8    
     5     25      1 ;     C4 - C10   
     5     27      1 ;     C4 - C12   
     6     22      1 ;     C5 - C7    
     6     24      1 ;     C5 - C9    
     6     26      1 ;     C5 - C11   
     6     34      1 ;     C5 - C18   
     7      3      1 ;      N - C2    
     7      9      1 ;      N - N2    
     7     21      1 ;      N - C6    
     7     25      1 ;      N - C10   
     8     10      1 ;     N1 - N3    
     8     22      1 ;     N1 - C7    
     8     26      1 ;     N1 - C11   
     9     13      1 ;     N2 - N6    
     9     17      1 ;     N2 - O2    
     9     28      1 ;     N2 - C13   
     9     32      1 ;     N2 - C17   
    10     12      1 ;     N3 - N5    
    10     14      1 ;     N3 - N7    
    10     18      1 ;     N3 - O3    
    10     35      1 ;     N3 - C19   
    10     39      1 ;     N3 - C23   
    11      3      1 ;     N4 - C2    
    11      9      1 ;     N4 - N2    
    11     23      1 ;     N4 - C8    
    12     24      1 ;     N5 - C9    
    13     25      1 ;     N6 - C10   
    14     26      1 ;     N7 - C11   
    15     23      1 ;      O - C8    
    15     25      1 ;      O - C10   
    16     24      1 ;     O1 - C9    
    16     26      1 ;     O1 - C11   
    17     21      1 ;     O2 - C6    
    17     23      1 ;     O2 - C8    
    18     22      1 ;     O3 - C7    
    18     24      1 ;     O3 - C9    
    19     29      1 ;     N8 - C14   
    19     31      1 ;     N8 - C16   
    19     53      1 ;     N8 - H12   
    19     56      1 ;     N8 - H15   
    20     36      1 ;     N9 - C20   
    20     38      1 ;     N9 - C22   
    20     59      1 ;     N9 - H18   
    20     62      1 ;     N9 - H21   
    21     41      1 ;     C6 - H     
    21     42      1 ;     C6 - H1    
    21     43      1 ;     C6 - H2    
    21     47      1 ;     C6 - H6    
    21     48      1 ;     C6 - H7    
    21     49      1 ;     C6 - H8    
    22     44      1 ;     C7 - H3    
    22     45      1 ;     C7 - H4    
    22     46      1 ;     C7 - H5    
    22     50      1 ;     C7 - H9    
    22     51      1 ;     C7 - H10   
    22     52      1 ;     C7 - H11   
    27     30      1 ;    C12 - C15   
    27     54      1 ;    C12 - H13   
    27     55      1 ;    C12 - H14   
    28     31      1 ;    C13 - C16   
    28     33      1 ;    C13 - N10   
    28     56      1 ;    C13 - H15   
    29     32      1 ;    C14 - C17   
    29     55      1 ;    C14 - H14   
    29     57      1 ;    C14 - H16   
    29     58      1 ;    C14 - H17   
    30     53      1 ;    C15 - H12   
    30     56      1 ;    C15 - H15   
    31     54      1 ;    C16 - H13   
    31     57      1 ;    C16 - H16   
    31     58      1 ;    C16 - H17   
    32     33      1 ;    C17 - N10   
    32     53      1 ;    C17 - H12   
    33     54      1 ;    N10 - H13   
    33     55      1 ;    N10 - H14   
    34     37      1 ;    C18 - C21   
    34     60      1 ;    C18 - H19   
    34     61      1 ;    C18 - H20   
    35     38      1 ;    C19 - C22   
    35     40      1 ;    C19 - N11   
    35     62      1 ;    C19 - H21   
    36     39      1 ;    C20 - C23   
    36     61      1 ;    C20 - H20   
    36     63      1 ;    C20 - H22   
    36     64      1 ;    C20 - H23   
    37     59      1 ;    C21 - H18   
    37     62      1 ;    C21 - H21   
    38     60      1 ;    C22 - H19   
    38     63      1 ;    C22 - H22   
    38     64      1 ;    C22 - H23   
    39     40      1 ;    C23 - N11   
    39     59      1 ;    C23 - H18   
    40     60      1 ;    N11 - H19   
    40     61      1 ;    N11 - H20   
    53     54      1 ;    H12 - H13   
    55     56      1 ;    H14 - H15   
    59     60      1 ;    H18 - H19   
    61     62      1 ;    H20 - H21   

[ angles ]
;   ai     aj     ak    funct   theta         cth
     1      5      3      1 ;    1.2143e+02    5.1145e+02 ;      C - C4   - C2       C* -   C* - C   
     1      5      9      1 ;    1.2168e+02    5.7488e+02 ;      C - C4   - N2       C* -   C* - x   
     1     11     21      1 ;    1.2161e+02    6.5806e+02 ;      C - N4   - C6       C* -    N - C   
     1     11     25      1 ;    1.2174e+02    6.4116e+02 ;      C - N4   - C10      C* -    N - CT  
     2      6      4      1 ;    1.2143e+02    5.1145e+02 ;     C1 - C5   - C3       C* -   C* - C   
     2      6     10      1 ;    1.2168e+02    5.7488e+02 ;     C1 - C5   - N3       C* -   C* - x   
     2     12     22      1 ;    1.2161e+02    6.5806e+02 ;     C1 - N5   - C7       C* -    N - C   
     2     12     26      1 ;    1.2174e+02    6.4116e+02 ;     C1 - N5   - C11      C* -    N - CT  
     3      5      9      1 ;    1.2572e+02    5.5530e+02 ;     C2 - C4   - N2        C -   C* - x   
     3     13     21      1 ;    1.2521e+02    6.4559e+02 ;     C2 - N6   - C6        C -    N - C   
     3     13     23      1 ;    1.1883e+02    6.4634e+02 ;     C2 - N6   - C8        C -    N - CT  
     4      6     10      1 ;    1.2572e+02    5.5530e+02 ;     C3 - C5   - N3        C -   C* - x   
     4     14     22      1 ;    1.2521e+02    6.4559e+02 ;     C3 - N7   - C7        C -    N - C   
     4     14     24      1 ;    1.1883e+02    6.4634e+02 ;     C3 - N7   - C9        C -    N - CT  
     5      1      7      1 ;    1.2121e+02    5.7162e+02 ;     C4 - C    - N        C* -   C* - x   
     5      1     11      1 ;    1.1469e+02    5.7547e+02 ;     C4 - C    - N4       C* -   C* - N   
     5      3     13      1 ;    1.1269e+02    5.6911e+02 ;     C4 - C2   - N6       C* -    C - N   
     5      3     17      1 ;    1.2406e+02    6.5572e+02 ;     C4 - C2   - O2       C* -    C - O   
     5      9     19      1 ;    1.1313e+02    7.5931e+02 ;     C4 - N2   - N8       C* -    x - x   
     6      2      8      1 ;    1.2121e+02    5.7162e+02 ;     C5 - C1   - N1       C* -   C* - x   
     6      2     12      1 ;    1.1469e+02    5.7547e+02 ;     C5 - C1   - N5       C* -   C* - N   
     6      4     14      1 ;    1.1269e+02    5.6911e+02 ;     C5 - C3   - N7       C* -    C - N   
     6      4     18      1 ;    1.2406e+02    6.5572e+02 ;     C5 - C3   - O3       C* -    C - O   
     6     10     20      1 ;    1.1313e+02    7.5931e+02 ;     C5 - N3   - N9       C* -    x - x   
     7      1     11      1 ;    1.1901e+02    6.1520e+02 ;      N - C    - N4        x -   C* - N   
     8      2     12      1 ;    1.1901e+02    6.1520e+02 ;     N1 - C1   - N5        x -   C* - N   
     9     19     27      1 ;    1.1353e+02    7.8073e+02 ;     N2 - N8   - C12       x -    x - CA  
    10     20     34      1 ;    1.1353e+02    7.8073e+02 ;     N3 - N9   - C18       x -    x - CA  
    11     21     13      1 ;    1.1617e+02    6.1112e+02 ;     N4 - C6   - N6        N -    C - N   
    11     21     15      1 ;    1.2257e+02    7.2534e+02 ;     N4 - C6   - O         N -    C - O   
    11     25     47      1 ;    1.0876e+02    4.0242e+02 ;     N4 - C10  - H6        N -   CT - HC  
    11     25     48      1 ;    1.0876e+02    4.0242e+02 ;     N4 - C10  - H7        N -   CT - HC  
    11     25     49      1 ;    1.0876e+02    4.0242e+02 ;     N4 - C10  - H8        N -   CT - HC  
    12     22     14      1 ;    1.1617e+02    6.1112e+02 ;     N5 - C7   - N7        N -    C - N   
    12     22     16      1 ;    1.2257e+02    7.2534e+02 ;     N5 - C7   - O1        N -    C - O   
    12     26     50      1 ;    1.0876e+02    4.0242e+02 ;     N5 - C11  - H9        N -   CT - HC  
    12     26     51      1 ;    1.0876e+02    4.0242e+02 ;     N5 - C11  - H10       N -   CT - HC  
    12     26     52      1 ;    1.0876e+02    4.0242e+02 ;     N5 - C11  - H11       N -   CT - HC  
    13      3     17      1 ;    1.2257e+02    7.2534e+02 ;     N6 - C2   - O2        N -    C - O   
    13     21     15      1 ;    1.2257e+02    7.2534e+02 ;     N6 - C6   - O         N -    C - O   
    13     23     41      1 ;    1.0876e+02    4.0242e+02 ;     N6 - C8   - H         N -   CT - HC  
    13     23     42      1 ;    1.0876e+02    4.0242e+02 ;     N6 - C8   - H1        N -   CT - HC  
    13     23     43      1 ;    1.0876e+02    4.0242e+02 ;     N6 - C8   - H2        N -   CT - HC  
    14      4     18      1 ;    1.2257e+02    7.2534e+02 ;     N7 - C3   - O3        N -    C - O   
    14     22     16      1 ;    1.2257e+02    7.2534e+02 ;     N7 - C7   - O1        N -    C - O   
    14     24     44      1 ;    1.0876e+02    4.0242e+02 ;     N7 - C9   - H3        N -   CT - HC  
    14     24     45      1 ;    1.0876e+02    4.0242e+02 ;     N7 - C9   - H4        N -   CT - HC  
    14     24     46      1 ;    1.0876e+02    4.0242e+02 ;     N7 - C9   - H5        N -   CT - HC  
    19     27     28      1 ;    1.2029e+02    5.7488e+02 ;     N8 - C12  - C13       x -   CA - CA  
    19     27     32      1 ;    1.2029e+02    5.7488e+02 ;     N8 - C12  - C17       x -   CA - CA  
    20     34     35      1 ;    1.2029e+02    5.7488e+02 ;     N9 - C18  - C19       x -   CA - CA  
    20     34     39      1 ;    1.2029e+02    5.7488e+02 ;     N9 - C18  - C23       x -   CA - CA  
    21     11     25      1 ;    1.1883e+02    6.4634e+02 ;     C6 - N4   - C10       C -    N - CT  
    21     13     23      1 ;    1.1883e+02    6.4634e+02 ;     C6 - N6   - C8        C -    N - CT  
    22     12     26      1 ;    1.1883e+02    6.4634e+02 ;     C7 - N5   - C11       C -    N - CT  
    22     14     24      1 ;    1.1883e+02    6.4634e+02 ;     C7 - N7   - C9        C -    N - CT  
    27     28     29      1 ;    1.2002e+02    5.3279e+02 ;    C12 - C13  - C14      CA -   CA - CA  
    27     28     53      1 ;    1.1988e+02    3.7572e+02 ;    C12 - C13  - H12      CA -   CA - HA  
    27     32     31      1 ;    1.2002e+02    5.3279e+02 ;    C12 - C17  - C16      CA -   CA - CA  
    27     32     56      1 ;    1.1988e+02    3.7572e+02 ;    C12 - C17  - H15      CA -   CA - HA  
    28     27     32      1 ;    1.2002e+02    5.3279e+02 ;    C13 - C12  - C17      CA -   CA - CA  
    28     29     30      1 ;    1.2002e+02    5.3279e+02 ;    C13 - C14  - C15      CA -   CA - CA  
    28     29     54      1 ;    1.1988e+02    3.7572e+02 ;    C13 - C14  - H13      CA -   CA - HA  
    29     28     53      1 ;    1.1988e+02    3.7572e+02 ;    C14 - C13  - H12      CA -   CA - HA  
    29     30     31      1 ;    1.2002e+02    5.3279e+02 ;    C14 - C15  - C16      CA -   CA - CA  
    29     30     33      1 ;    1.2094e+02    5.6827e+02 ;    C14 - C15  - N10      CA -   CA - x   
    30     29     54      1 ;    1.1988e+02    3.7572e+02 ;    C15 - C14  - H13      CA -   CA - HA  
    30     31     32      1 ;    1.2002e+02    5.3279e+02 ;    C15 - C16  - C17      CA -   CA - CA  
    30     31     55      1 ;    1.1988e+02    3.7572e+02 ;    C15 - C16  - H14      CA -   CA - HA  
    30     33     57      1 ;    1.1673e+02    4.8292e+02 ;    C15 - N10  - H16      CA -    x - H   
    30     33     58      1 ;    1.1673e+02    4.8292e+02 ;    C15 - N10  - H17      CA -    x - H   
    31     30     33      1 ;    1.2094e+02    5.6827e+02 ;    C16 - C15  - N10      CA -   CA - x   
    31     32     56      1 ;    1.1988e+02    3.7572e+02 ;    C16 - C17  - H15      CA -   CA - HA  
    32     31     55      1 ;    1.1988e+02    3.7572e+02 ;    C17 - C16  - H14      CA -   CA - HA  
    34     35     36      1 ;    1.2002e+02    5.3279e+02 ;    C18 - C19  - C20      CA -   CA - CA  
    34     35     59      1 ;    1.1988e+02    3.7572e+02 ;    C18 - C19  - H18      CA -   CA - HA  
    34     39     38      1 ;    1.2002e+02    5.3279e+02 ;    C18 - C23  - C22      CA -   CA - CA  
    34     39     62      1 ;    1.1988e+02    3.7572e+02 ;    C18 - C23  - H21      CA -   CA - HA  
    35     34     39      1 ;    1.2002e+02    5.3279e+02 ;    C19 - C18  - C23      CA -   CA - CA  
    35     36     37      1 ;    1.2002e+02    5.3279e+02 ;    C19 - C20  - C21      CA -   CA - CA  
    35     36     60      1 ;    1.1988e+02    3.7572e+02 ;    C19 - C20  - H19      CA -   CA - HA  
    36     35     59      1 ;    1.1988e+02    3.7572e+02 ;    C20 - C19  - H18      CA -   CA - HA  
    36     37     38      1 ;    1.2002e+02    5.3279e+02 ;    C20 - C21  - C22      CA -   CA - CA  
    36     37     40      1 ;    1.2094e+02    5.6827e+02 ;    C20 - C21  - N11      CA -   CA - x   
    37     36     60      1 ;    1.1988e+02    3.7572e+02 ;    C21 - C20  - H19      CA -   CA - HA  
    37     38     39      1 ;    1.2002e+02    5.3279e+02 ;    C21 - C22  - C23      CA -   CA - CA  
    37     38     61      1 ;    1.1988e+02    3.7572e+02 ;    C21 - C22  - H20      CA -   CA - HA  
    37     40     63      1 ;    1.1673e+02    4.8292e+02 ;    C21 - N11  - H22      CA -    x - H   
    37     40     64      1 ;    1.1673e+02    4.8292e+02 ;    C21 - N11  - H23      CA -    x - H   
    38     37     40      1 ;    1.2094e+02    5.6827e+02 ;    C22 - C21  - N11      CA -   CA - x   
    38     39     62      1 ;    1.1988e+02    3.7572e+02 ;    C22 - C23  - H21      CA -   CA - HA  
    39     38     61      1 ;    1.1988e+02    3.7572e+02 ;    C23 - C22  - H20      CA -   CA - HA  
    41     23     42      1 ;    1.0855e+02    2.9824e+02 ;      H - C8   - H1       HC -   CT - HC  
    41     23     43      1 ;    1.0855e+02    2.9824e+02 ;      H - C8   - H2       HC -   CT - HC  
    42     23     43      1 ;    1.0855e+02    2.9824e+02 ;     H1 - C8   - H2       HC -   CT - HC  
    44     24     45      1 ;    1.0855e+02    2.9824e+02 ;     H3 - C9   - H4       HC -   CT - HC  
    44     24     46      1 ;    1.0855e+02    2.9824e+02 ;     H3 - C9   - H5       HC -   CT - HC  
    45     24     46      1 ;    1.0855e+02    2.9824e+02 ;     H4 - C9   - H5       HC -   CT - HC  
    47     25     48      1 ;    1.0855e+02    2.9824e+02 ;     H6 - C10  - H7       HC -   CT - HC  
    47     25     49      1 ;    1.0855e+02    2.9824e+02 ;     H6 - C10  - H8       HC -   CT - HC  
    48     25     49      1 ;    1.0855e+02    2.9824e+02 ;     H7 - C10  - H8       HC -   CT - HC  
    50     26     51      1 ;    1.0855e+02    2.9824e+02 ;     H9 - C11  - H10      HC -   CT - HC  
    50     26     52      1 ;    1.0855e+02    2.9824e+02 ;     H9 - C11  - H11      HC -   CT - HC  
    51     26     52      1 ;    1.0855e+02    2.9824e+02 ;    H10 - C11  - H11      HC -   CT - HC  
    57     33     58      1 ;    1.1528e+02    3.8794e+02 ;    H16 - N10  - H17       H -    x - H   
    63     40     64      1 ;    1.1528e+02    3.8794e+02 ;    H22 - N11  - H23       H -    x - H   

[ dihedrals ] ; propers
; for gromacs 4.5 or higher, using funct 9
;    i      j      k      l   func   phase     kd      pn
     1      5      3     13      9 ;   180.00  12.02900   2 ;      C-    C4-    C2-    N6
     1      5      3     17      9 ;   180.00  12.02900   2 ;      C-    C4-    C2-    O2
     1      5      9     19      9 ;   180.00   3.34720   2 ;      C-    C4-    N2-    N8
     1     11     21     13      9 ;   180.00  10.46000   2 ;      C-    N4-    C6-    N6
     1     11     21     15      9 ;   180.00  10.46000   2 ;      C-    N4-    C6-     O
     1     11     25     47      9 ;     0.00   0.00000   0 ;      C-    N4-   C10-    H6
     1     11     25     48      9 ;     0.00   0.00000   0 ;      C-    N4-   C10-    H7
     1     11     25     49      9 ;     0.00   0.00000   0 ;      C-    N4-   C10-    H8
     2      6      4     14      9 ;   180.00  12.02900   2 ;     C1-    C5-    C3-    N7
     2      6      4     18      9 ;   180.00  12.02900   2 ;     C1-    C5-    C3-    O3
     2      6     10     20      9 ;   180.00   3.34720   2 ;     C1-    C5-    N3-    N9
     2     12     22     14      9 ;   180.00  10.46000   2 ;     C1-    N5-    C7-    N7
     2     12     22     16      9 ;   180.00  10.46000   2 ;     C1-    N5-    C7-    O1
     2     12     26     50      9 ;     0.00   0.00000   0 ;     C1-    N5-   C11-    H9
     2     12     26     51      9 ;     0.00   0.00000   0 ;     C1-    N5-   C11-   H10
     2     12     26     52      9 ;     0.00   0.00000   0 ;     C1-    N5-   C11-   H11
     3      5      9     19      9 ;   180.00   3.34720   2 ;     C2-    C4-    N2-    N8
     3     13     21     11      9 ;   180.00  10.46000   2 ;     C2-    N6-    C6-    N4
     3     13     21     15      9 ;   180.00  10.46000   2 ;     C2-    N6-    C6-     O
     3     13     23     41      9 ;   180.00   0.00000   2 ;     C2-    N6-    C8-     H
     3     13     23     42      9 ;   180.00   0.00000   2 ;     C2-    N6-    C8-    H1
     3     13     23     43      9 ;   180.00   0.00000   2 ;     C2-    N6-    C8-    H2
     4      6      2      8      9 ;   180.00  16.73600   2 ;     C3-    C5-    C1-    N1
     4      6      2     12      9 ;   180.00  16.73600   2 ;     C3-    C5-    C1-    N5
     4      6     10     20      9 ;   180.00   3.34720   2 ;     C3-    C5-    N3-    N9
     4     14     22     12      9 ;   180.00  10.46000   2 ;     C3-    N7-    C7-    N5
     4     14     22     16      9 ;   180.00  10.46000   2 ;     C3-    N7-    C7-    O1
     4     14     24     44      9 ;   180.00   0.00000   2 ;     C3-    N7-    C9-    H3
     4     14     24     45      9 ;   180.00   0.00000   2 ;     C3-    N7-    C9-    H4
     4     14     24     46      9 ;   180.00   0.00000   2 ;     C3-    N7-    C9-    H5
     5      1     11     21      9 ;   180.00   6.90360   2 ;     C4-     C-    N4-    C6
     5      1     11     25      9 ;   180.00   6.90360   2 ;     C4-     C-    N4-   C10
     5      3     13     21      9 ;   180.00  10.46000   2 ;     C4-    C2-    N6-    C6
     5      3     13     23      9 ;   180.00  10.46000   2 ;     C4-    C2-    N6-    C8
     5      9     19     27      9 ;     0.00  11.71520   1 ;     C4-    N2-    N8-   C12
     5      9     19     27      9 ;   180.00  12.55200   2 ;     C4-    N2-    N8-   C12
     6      2     12     22      9 ;   180.00   6.90360   2 ;     C5-    C1-    N5-    C7
     6      2     12     26      9 ;   180.00   6.90360   2 ;     C5-    C1-    N5-   C11
     6      4     14     22      9 ;   180.00  10.46000   2 ;     C5-    C3-    N7-    C7
     6      4     14     24      9 ;   180.00  10.46000   2 ;     C5-    C3-    N7-    C9
     6     10     20     34      9 ;     0.00  11.71520   1 ;     C5-    N3-    N9-   C18
     6     10     20     34      9 ;   180.00  12.55200   2 ;     C5-    N3-    N9-   C18
     7      1      5      3      9 ;   180.00  16.73600   2 ;      N-     C-    C4-    C2
     7      1      5      9      9 ;   180.00  16.73600   2 ;      N-     C-    C4-    N2
     7      1     11     21      9 ;   180.00   6.90360   2 ;      N-     C-    N4-    C6
     7      1     11     25      9 ;   180.00   6.90360   2 ;      N-     C-    N4-   C10
     8      2      6     10      9 ;   180.00  16.73600   2 ;     N1-    C1-    C5-    N3
     8      2     12     22      9 ;   180.00   6.90360   2 ;     N1-    C1-    N5-    C7
     8      2     12     26      9 ;   180.00   6.90360   2 ;     N1-    C1-    N5-   C11
     9      5      3     13      9 ;   180.00  12.02900   2 ;     N2-    C4-    C2-    N6
     9      5      3     17      9 ;   180.00  12.02900   2 ;     N2-    C4-    C2-    O2
     9     19     27     28      9 ;   180.00   0.00000   3 ;     N2-    N8-   C12-   C13
     9     19     27     32      9 ;   180.00   0.00000   3 ;     N2-    N8-   C12-   C17
    10      6      2     12      9 ;   180.00  16.73600   2 ;     N3-    C5-    C1-    N5
    10      6      4     14      9 ;   180.00  12.02900   2 ;     N3-    C5-    C3-    N7
    10      6      4     18      9 ;   180.00  12.02900   2 ;     N3-    C5-    C3-    O3
    10     20     34     35      9 ;   180.00   0.00000   3 ;     N3-    N9-   C18-   C19
    10     20     34     39      9 ;   180.00   0.00000   3 ;     N3-    N9-   C18-   C23
    11      1      5      3      9 ;   180.00  16.73600   2 ;     N4-     C-    C4-    C2
    11      1      5      9      9 ;   180.00  16.73600   2 ;     N4-     C-    C4-    N2
    11     21     13     23      9 ;   180.00  10.46000   2 ;     N4-    C6-    N6-    C8
    12     22     14     24      9 ;   180.00  10.46000   2 ;     N5-    C7-    N7-    C9
    13     21     11     25      9 ;   180.00  10.46000   2 ;     N6-    C6-    N4-   C10
    14     22     12     26      9 ;   180.00  10.46000   2 ;     N7-    C7-    N5-   C11
    15     21     11     25      9 ;   180.00  10.46000   2 ;      O-    C6-    N4-   C10
    15     21     13     23      9 ;   180.00  10.46000   2 ;      O-    C6-    N6-    C8
    16     22     12     26      9 ;   180.00  10.46000   2 ;     O1-    C7-    N5-   C11
    16     22     14     24      9 ;   180.00  10.46000   2 ;     O1-    C7-    N7-    C9
    17      3     13     21      9 ;   180.00  10.46000   2 ;     O2-    C2-    N6-    C6
    17      3     13     23      9 ;   180.00  10.46000   2 ;     O2-    C2-    N6-    C8
    18      4     14     22      9 ;   180.00  10.46000   2 ;     O3-    C3-    N7-    C7
    18      4     14     24      9 ;   180.00  10.46000   2 ;     O3-    C3-    N7-    C9
    19     27     28     29      9 ;   180.00  15.16700   2 ;     N8-   C12-   C13-   C14
    19     27     28     53      9 ;   180.00  15.16700   2 ;     N8-   C12-   C13-   H12
    19     27     32     31      9 ;   180.00  15.16700   2 ;     N8-   C12-   C17-   C16
    19     27     32     56      9 ;   180.00  15.16700   2 ;     N8-   C12-   C17-   H15
    20     34     35     36      9 ;   180.00  15.16700   2 ;     N9-   C18-   C19-   C20
    20     34     35     59      9 ;   180.00  15.16700   2 ;     N9-   C18-   C19-   H18
    20     34     39     38      9 ;   180.00  15.16700   2 ;     N9-   C18-   C23-   C22
    20     34     39     62      9 ;   180.00  15.16700   2 ;     N9-   C18-   C23-   H21
    21     11     25     47      9 ;   180.00   0.00000   2 ;     C6-    N4-   C10-    H6
    21     11     25     48      9 ;   180.00   0.00000   2 ;     C6-    N4-   C10-    H7
    21     11     25     49      9 ;   180.00   0.00000   2 ;     C6-    N4-   C10-    H8
    21     13     23     41      9 ;   180.00   0.00000   2 ;     C6-    N6-    C8-     H
    21     13     23     42      9 ;   180.00   0.00000   2 ;     C6-    N6-    C8-    H1
    21     13     23     43      9 ;   180.00   0.00000   2 ;     C6-    N6-    C8-    H2
    22     12     26     50      9 ;   180.00   0.00000   2 ;     C7-    N5-   C11-    H9
    22     12     26     51      9 ;   180.00   0.00000   2 ;     C7-    N5-   C11-   H10
    22     12     26     52      9 ;   180.00   0.00000   2 ;     C7-    N5-   C11-   H11
    22     14     24     44      9 ;   180.00   0.00000   2 ;     C7-    N7-    C9-    H3
    22     14     24     45      9 ;   180.00   0.00000   2 ;     C7-    N7-    C9-    H4
    22     14     24     46      9 ;   180.00   0.00000   2 ;     C7-    N7-    C9-    H5
    27     28     29     30      9 ;   180.00  15.16700   2 ;    C12-   C13-   C14-   C15
    27     28     29     54      9 ;   180.00  15.16700   2 ;    C12-   C13-   C14-   H13
    27     32     31     30      9 ;   180.00  15.16700   2 ;    C12-   C17-   C16-   C15
    27     32     31     55      9 ;   180.00  15.16700   2 ;    C12-   C17-   C16-   H14
    28     27     32     31      9 ;   180.00  15.16700   2 ;    C13-   C12-   C17-   C16
    28     27     32     56      9 ;   180.00  15.16700   2 ;    C13-   C12-   C17-   H15
    28     29     30     31      9 ;   180.00  15.16700   2 ;    C13-   C14-   C15-   C16
    28     29     30     33      9 ;   180.00  15.16700   2 ;    C13-   C14-   C15-   N10
    29     28     27     32      9 ;   180.00  15.16700   2 ;    C14-   C13-   C12-   C17
    29     30     31     32      9 ;   180.00  15.16700   2 ;    C14-   C15-   C16-   C17
    29     30     31     55      9 ;   180.00  15.16700   2 ;    C14-   C15-   C16-   H14
    29     30     33     57      9 ;   180.00   4.39320   2 ;    C14-   C15-   N10-   H16
    29     30     33     58      9 ;   180.00   4.39320   2 ;    C14-   C15-   N10-   H17
    30     29     28     53      9 ;   180.00  15.16700   2 ;    C15-   C14-   C13-   H12
    30     31     32     56      9 ;   180.00  15.16700   2 ;    C15-   C16-   C17-   H15
    31     30     29     54      9 ;   180.00  15.16700   2 ;    C16-   C15-   C14-   H13
    31     30     33     57      9 ;   180.00   4.39320   2 ;    C16-   C15-   N10-   H16
    31     30     33     58      9 ;   180.00   4.39320   2 ;    C16-   C15-   N10-   H17
    32     27     28     53      9 ;   180.00  15.16700   2 ;    C17-   C12-   C13-   H12
    32     31     30     33      9 ;   180.00  15.16700   2 ;    C17-   C16-   C15-   N10
    33     30     29     54      9 ;   180.00  15.16700   2 ;    N10-   C15-   C14-   H13
    33     30     31     55      9 ;   180.00  15.16700   2 ;    N10-   C15-   C16-   H14
    34     35     36     37      9 ;   180.00  15.16700   2 ;    C18-   C19-   C20-   C21
    34     35     36     60      9 ;   180.00  15.16700   2 ;    C18-   C19-   C20-   H19
    34     39     38     37      9 ;   180.00  15.16700   2 ;    C18-   C23-   C22-   C21
    34     39     38     61      9 ;   180.00  15.16700   2 ;    C18-   C23-   C22-   H20
    35     34     39     38      9 ;   180.00  15.16700   2 ;    C19-   C18-   C23-   C22
    35     34     39     62      9 ;   180.00  15.16700   2 ;    C19-   C18-   C23-   H21
    35     36     37     38      9 ;   180.00  15.16700   2 ;    C19-   C20-   C21-   C22
    35     36     37     40      9 ;   180.00  15.16700   2 ;    C19-   C20-   C21-   N11
    36     35     34     39      9 ;   180.00  15.16700   2 ;    C20-   C19-   C18-   C23
    36     37     38     39      9 ;   180.00  15.16700   2 ;    C20-   C21-   C22-   C23
    36     37     38     61      9 ;   180.00  15.16700   2 ;    C20-   C21-   C22-   H20
    36     37     40     63      9 ;   180.00   4.39320   2 ;    C20-   C21-   N11-   H22
    36     37     40     64      9 ;   180.00   4.39320   2 ;    C20-   C21-   N11-   H23
    37     36     35     59      9 ;   180.00  15.16700   2 ;    C21-   C20-   C19-   H18
    37     38     39     62      9 ;   180.00  15.16700   2 ;    C21-   C22-   C23-   H21
    38     37     36     60      9 ;   180.00  15.16700   2 ;    C22-   C21-   C20-   H19
    38     37     40     63      9 ;   180.00   4.39320   2 ;    C22-   C21-   N11-   H22
    38     37     40     64      9 ;   180.00   4.39320   2 ;    C22-   C21-   N11-   H23
    39     34     35     59      9 ;   180.00  15.16700   2 ;    C23-   C18-   C19-   H18
    39     38     37     40      9 ;   180.00  15.16700   2 ;    C23-   C22-   C21-   N11
    40     37     36     60      9 ;   180.00  15.16700   2 ;    N11-   C21-   C20-   H19
    40     37     38     61      9 ;   180.00  15.16700   2 ;    N11-   C21-   C22-   H20
    53     28     29     54      9 ;   180.00  15.16700   2 ;    H12-   C13-   C14-   H13
    55     31     32     56      9 ;   180.00  15.16700   2 ;    H14-   C16-   C17-   H15
    59     35     36     60      9 ;   180.00  15.16700   2 ;    H18-   C19-   C20-   H19
    61     38     39     62      9 ;   180.00  15.16700   2 ;    H20-   C22-   C23-   H21

[ dihedrals ] ; impropers
; treated as propers in GROMACS to use correct AMBER analytical function
;    i      j      k      l   func   phase     kd      pn
     1     11     25     21      4 ;   180.00   4.60240   2 ;      C-    N4-   C10-    C6
     3      1      5      9      4 ;   180.00   4.60240   2 ;     C2-     C-    C4-    N2
     3     21     13     23      4 ;   180.00   4.60240   2 ;     C2-    C6-    N6-    C8
     4      2      6     10      4 ;   180.00   4.60240   2 ;     C3-    C1-    C5-    N3
     4     22     14     24      4 ;   180.00   4.60240   2 ;     C3-    C7-    N7-    C9
     5     13      3     17      4 ;   180.00  43.93200   2 ;     C4-    N6-    C2-    O2
     6     12      2      8      4 ;   180.00   4.60240   2 ;     C5-    N5-    C1-    N1
     6     14      4     18      4 ;   180.00  43.93200   2 ;     C5-    N7-    C3-    O3
     7      1     11      5      4 ;   180.00   4.60240   2 ;      N-     C-    N4-    C4
    11     13     21     15      4 ;   180.00  43.93200   2 ;     N4-    N6-    C6-     O
    12     14     22     16      4 ;   180.00  43.93200   2 ;     N5-    N7-    C7-    O1
    22     26     12      2      4 ;   180.00   4.60240   2 ;     C7-   C11-    N5-    C1
    27     29     28     53      4 ;   180.00   4.60240   2 ;    C12-   C14-   C13-   H12
    27     31     32     56      4 ;   180.00   4.60240   2 ;    C12-   C16-   C17-   H15
    28     30     29     54      4 ;   180.00   4.60240   2 ;    C13-   C15-   C14-   H13
    28     32     27     19      4 ;   180.00   4.60240   2 ;    C13-   C17-   C12-    N8
    29     31     30     33      4 ;   180.00   4.60240   2 ;    C14-   C16-   C15-   N10
    30     32     31     55      4 ;   180.00   4.60240   2 ;    C15-   C17-   C16-   H14
    30     57     33     58      4 ;   180.00   4.60240   2 ;    C15-   H16-   N10-   H17
    34     36     35     59      4 ;   180.00   4.60240   2 ;    C18-   C20-   C19-   H18
    34     38     39     62      4 ;   180.00   4.60240   2 ;    C18-   C22-   C23-   H21
    35     37     36     60      4 ;   180.00   4.60240   2 ;    C19-   C21-   C20-   H19
    35     39     34     20      4 ;   180.00   4.60240   2 ;    C19-   C23-   C18-    N9
    36     38     37     40      4 ;   180.00   4.60240   2 ;    C20-   C22-   C21-   N11
    37     39     38     61      4 ;   180.00   4.60240   2 ;    C21-   C23-   C22-   H20
    37     63     40     64      4 ;   180.00   4.60240   2 ;    C21-   H22-   N11-   H23
