PDL_H_optimized_nopd_GMX.gro created by acpype (v: 2022.6.6) on Sun Apr 26 17:04:31 2026
 64
    1  LIG    C    1   2.022   3.785   2.060
    1  LIG   C1    2   2.319   4.190   1.776
    1  LIG   C2    3   2.114   3.545   2.067
    1  LIG   C3    4   2.227   4.429   1.769
    1  LIG   C4    5   2.133   3.691   2.044
    1  LIG   C5    6   2.208   4.283   1.792
    1  LIG    N    7   2.023   3.909   2.026
    1  LIG   N1    8   2.318   4.066   1.810
    1  LIG   N2    9   2.258   3.725   2.020
    1  LIG   N3   10   2.083   4.250   1.816
    1  LIG   N4   11   1.908   3.733   2.128
    1  LIG   N5   12   2.433   4.242   1.709
    1  LIG   N6   13   1.990   3.509   2.120
    1  LIG   N7   14   2.352   4.465   1.718
    1  LIG    O   15   1.785   3.557   2.207
    1  LIG   O1   16   2.558   4.417   1.631
    1  LIG   O2   17   2.199   3.462   2.041
    1  LIG   O3   18   2.143   4.513   1.793
    1  LIG   N8   19   2.296   3.847   1.993
    1  LIG   N9   20   2.045   4.128   1.843
    1  LIG   C6   21   1.887   3.599   2.155
    1  LIG   C7   22   2.455   4.376   1.682
    1  LIG   C8   23   1.962   3.368   2.145
    1  LIG   C9   24   2.373   4.608   1.695
    1  LIG  C10   25   1.803   3.827   2.165
    1  LIG  C11   26   2.538   4.147   1.672
    1  LIG  C12   27   2.433   3.865   2.006
    1  LIG  C13   28   2.524   3.756   1.999
    1  LIG  C14   29   2.660   3.777   2.012
    1  LIG  C15   30   2.712   3.907   2.035
    1  LIG  C16   31   2.621   4.015   2.046
    1  LIG  C17   32   2.485   3.995   2.030
    1  LIG  N10   33   2.846   3.926   2.050
    1  LIG  C18   34   1.908   4.109   1.830
    1  LIG  C19   35   1.856   3.979   1.807
    1  LIG  C20   36   1.720   3.959   1.791
    1  LIG  C21   37   1.629   4.067   1.801
    1  LIG  C22   38   1.681   4.197   1.824
    1  LIG  C23   39   1.817   4.218   1.837
    1  LIG  N11   40   1.495   4.048   1.786
    1  LIG    H   41   2.049   3.311   2.111
    1  LIG   H1   42   1.946   3.351   2.253
    1  LIG   H2   43   1.871   3.337   2.093
    1  LIG   H3   44   2.475   4.621   1.657
    1  LIG   H4   45   2.300   4.646   1.622
    1  LIG   H5   46   2.359   4.663   1.789
    1  LIG   H6   47   1.847   3.910   2.222
    1  LIG   H7   48   1.756   3.870   2.075
    1  LIG   H8   49   1.729   3.773   2.224
    1  LIG   H9   50   2.611   4.200   1.611
    1  LIG  H10   51   2.585   4.105   1.761
    1  LIG  H11   52   2.493   4.064   1.615
    1  LIG  H12   53   2.484   3.656   1.982
    1  LIG  H13   54   2.728   3.692   2.004
    1  LIG  H14   55   2.659   4.115   2.067
    1  LIG  H15   56   2.416   4.078   2.042
    1  LIG  H16   57   2.911   3.850   2.038
    1  LIG  H17   58   2.885   4.019   2.059
    1  LIG  H18   59   1.925   3.896   1.794
    1  LIG  H19   60   1.682   3.859   1.770
    1  LIG  H20   61   1.612   4.282   1.832
    1  LIG  H21   62   1.857   4.318   1.854
    1  LIG  H22   63   1.456   3.955   1.778
    1  LIG  H23   64   1.430   4.124   1.799
   29.62200    27.05200    12.83400
