%VERSION  VERSION_STAMP = V0001.000  DATE = 04/26/26  17:09:52                  
%FLAG TITLE                                                                     
%FORMAT(20a4)                                                                   
PDL_H_optimized_nopd.pdb                                                        
%FLAG POINTERS                                                                  
%FORMAT(10I8)                                                                   
      64      10      24      42      46      60      70      96       0       0
     308       1      42      60      96      15      24      14      13       0
       0       0       0       0       0       0       0       0      64       0
       0
%FLAG ATOM_NAME                                                                 
%FORMAT(20a4)                                                                   
C   C1  C2  C3  C4  C5  N   N1  N2  N3  N4  N5  N6  N7  O   O1  O2  O3  N8  N9  
C6  C7  C8  C9  C10 C11 C12 C13 C14 C15 C16 C17 N10 C18 C19 C20 C21 C22 C23 N11 
H   H1  H2  H3  H4  H5  H6  H7  H8  H9  H10 H11 H12 H13 H14 H15 H16 H17 H18 H19 
H20 H21 H22 H23 
%FLAG CHARGE                                                                    
%FORMAT(5E16.8)                                                                 
 -2.05911990E+00 -2.05911990E+00  1.36885918E+01  1.36885918E+01  3.19983588E+00
  3.19983588E+00 -1.02044880E+00 -1.02044880E+00 -2.72241162E+00 -2.72241162E+00
 -5.92224750E+00 -5.92224750E+00 -9.13666122E+00 -9.13666122E+00 -1.07784905E+01
 -1.07784905E+01 -1.04504890E+01 -1.04504890E+01 -2.47641057E+00 -2.47641057E+00
  1.48785080E+01  1.48785080E+01  1.46325069E+00  1.46325069E+00  1.35391689E+00
  1.35391689E+00  8.38225800E-02 -1.60356240E+00 -3.47134815E+00  2.83538988E+00
 -3.47134815E+00 -1.60356240E+00 -1.46908183E+01  8.38225800E-02 -1.60356240E+00
 -3.47134815E+00  2.83538988E+00 -3.47134815E+00 -1.60356240E+00 -1.46908183E+01
  1.21542741E+00  1.21542741E+00  1.21542741E+00  1.21542741E+00  1.21542741E+00
  1.21542741E+00  1.23971774E+00  1.23971774E+00  1.23971774E+00  1.23971774E+00
  1.23971774E+00  1.23971774E+00  2.48734395E+00  2.49645510E+00  2.49645510E+00
  2.48734395E+00  7.27616439E+00  7.27616439E+00  2.48734395E+00  2.49645510E+00
  2.49645510E+00  2.48734395E+00  7.27616439E+00  7.27616439E+00
%FLAG ATOMIC_NUMBER                                                             
%FORMAT(10I8)                                                                   
       6       6       6       6       6       6       7       7       7       7
       7       7       7       7       8       8       8       8       7       7
       6       6       6       6       6       6       6       6       6       6
       6       6       7       6       6       6       6       6       6       7
       1       1       1       1       1       1       1       1       1       1
       1       1       1       1       1       1       1       1       1       1
       1       1       1       1
%FLAG MASS                                                                      
%FORMAT(5E16.8)                                                                 
  1.20100000E+01  1.20100000E+01  1.20100000E+01  1.20100000E+01  1.20100000E+01
  1.20100000E+01  1.40100000E+01  1.40100000E+01  1.40100000E+01  1.40100000E+01
  1.40100000E+01  1.40100000E+01  1.40100000E+01  1.40100000E+01  1.60000000E+01
  1.60000000E+01  1.60000000E+01  1.60000000E+01  1.40100000E+01  1.40100000E+01
  1.20100000E+01  1.20100000E+01  1.20100000E+01  1.20100000E+01  1.20100000E+01
  1.20100000E+01  1.20100000E+01  1.20100000E+01  1.20100000E+01  1.20100000E+01
  1.20100000E+01  1.20100000E+01  1.40100000E+01  1.20100000E+01  1.20100000E+01
  1.20100000E+01  1.20100000E+01  1.20100000E+01  1.20100000E+01  1.40100000E+01
  1.00800000E+00  1.00800000E+00  1.00800000E+00  1.00800000E+00  1.00800000E+00
  1.00800000E+00  1.00800000E+00  1.00800000E+00  1.00800000E+00  1.00800000E+00
  1.00800000E+00  1.00800000E+00  1.00800000E+00  1.00800000E+00  1.00800000E+00
  1.00800000E+00  1.00800000E+00  1.00800000E+00  1.00800000E+00  1.00800000E+00
  1.00800000E+00  1.00800000E+00  1.00800000E+00  1.00800000E+00
%FLAG ATOM_TYPE_INDEX                                                           
%FORMAT(10I8)                                                                   
       1       1       1       1       1       1       2       2       3       3
       4       4       4       4       5       5       5       5       3       3
       1       1       6       6       6       6       1       1       1       1
       1       1       7       1       1       1       1       1       1       7
       8       8       8       8       8       8       8       8       8       8
       8       8       9       9       9       9      10      10       9       9
       9       9      10      10
%FLAG NUMBER_EXCLUDED_ATOMS                                                     
%FORMAT(10I8)                                                                   
      14      14      13      13      10      10       4       4       7       7
       8       8       8       8       3       3       2       2       7       7
       8       8       3       3       3       3       9       8       9       9
       7       4       4       9       8       9       9       7       4       4
       2       1       1       2       1       1       2       1       1       2
       1       1       1       1       1       1       1       1       1       1
       1       1       1       1
%FLAG NONBONDED_PARM_INDEX                                                      
%FORMAT(10I8)                                                                   
       1       2       4       7      11      16      22      29      37      46
       2       3       5       8      12      17      23      30      38      47
       4       5       6       9      13      18      24      31      39      48
       7       8       9      10      14      19      25      32      40      49
      11      12      13      14      15      20      26      33      41      50
      16      17      18      19      20      21      27      34      42      51
      22      23      24      25      26      27      28      35      43      52
      29      30      31      32      33      34      35      36      44      53
      37      38      39      40      41      42      43      44      45      54
      46      47      48      49      50      51      52      53      54      55
%FLAG RESIDUE_LABEL                                                             
%FORMAT(20a4)                                                                   
LIG 
%FLAG RESIDUE_POINTER                                                           
%FORMAT(10I8)                                                                   
       1
%FLAG BOND_FORCE_CONSTANT                                                       
%FORMAT(5E16.8)                                                                 
  4.16600000E+02  3.22020000E+02  3.31660000E+02  5.90600000E+02  2.81780000E+02
  3.17460000E+02  4.56660000E+02  4.06370000E+02  2.54460000E+02  3.74300000E+02
  3.44220000E+02  3.54250000E+02  3.60690000E+02  3.42300000E+02  4.77540000E+02
%FLAG BOND_EQUIL_VALUE                                                          
%FORMAT(5E16.8)                                                                 
  1.31790000E+00  1.42740000E+00  1.38370000E+00  1.21900000E+00  1.46870000E+00
  1.39670000E+00  1.29230000E+00  1.26300000E+00  1.46430000E+00  1.34840000E+00
  1.09690000E+00  1.39860000E+00  1.08600000E+00  1.37440000E+00  1.01140000E+00
%FLAG ANGLE_FORCE_CONSTANT                                                      
%FORMAT(5E16.8)                                                                 
  6.87000000E+01  6.11200000E+01  7.86400000E+01  7.66200000E+01  6.63600000E+01
  7.72400000E+01  7.71500000E+01  9.07400000E+01  6.83100000E+01  6.87700000E+01
  7.83600000E+01  6.80100000E+01  7.35180000E+01  9.33000000E+01  7.30300000E+01
  8.66800000E+01  4.80900000E+01  6.87000000E+01  4.49000000E+01  6.36700000E+01
  6.79100000E+01  5.77100000E+01  3.56400000E+01  4.63600000E+01
%FLAG ANGLE_EQUIL_VALUE                                                         
%FORMAT(5E16.8)                                                                 
  2.12371754E+00  2.11935422E+00  2.12249581E+00  2.12476474E+00  2.19422888E+00
  2.07397564E+00  2.18532769E+00  1.97449183E+00  2.11551449E+00  2.00171898E+00
  2.16525640E+00  1.96681238E+00  2.07702997E+00  1.98147315E+00  2.02754986E+00
  2.13925098E+00  1.89822091E+00  2.09945746E+00  2.09230160E+00  2.09474507E+00
  2.11080210E+00  2.03732371E+00  1.89455572E+00  2.01201642E+00
%FLAG DIHEDRAL_FORCE_CONSTANT                                                   
%FORMAT(5E16.8)                                                                 
  8.00000000E-01  2.87500000E+00  2.50000000E+00  0.00000000E+00  4.00000000E+00
  0.00000000E+00  2.80000000E+00  3.00000000E+00  1.65000000E+00  0.00000000E+00
  3.62500000E+00  1.05000000E+00  1.10000000E+00  1.05000000E+01
%FLAG DIHEDRAL_PERIODICITY                                                      
%FORMAT(5E16.8)                                                                 
  2.00000000E+00  2.00000000E+00  2.00000000E+00  2.00000000E+00  2.00000000E+00
  2.00000000E+00  1.00000000E+00  2.00000000E+00  2.00000000E+00  3.00000000E+00
  2.00000000E+00  2.00000000E+00  2.00000000E+00  2.00000000E+00
%FLAG DIHEDRAL_PHASE                                                            
%FORMAT(5E16.8)                                                                 
  3.14159400E+00  3.14159400E+00  3.14159400E+00  0.00000000E+00  3.14159400E+00
  3.14159400E+00  0.00000000E+00  3.14159400E+00  3.14159400E+00  3.14159400E+00
  3.14159400E+00  3.14159400E+00  3.14159400E+00  3.14159400E+00
%FLAG SCEE_SCALE_FACTOR                                                         
%FORMAT(5E16.8)                                                                 
  1.20000000E+00  1.20000000E+00  1.20000000E+00  1.20000000E+00  1.20000000E+00
  1.20000000E+00  1.20000000E+00  1.20000000E+00  1.20000000E+00  1.20000000E+00
  1.20000000E+00  1.20000000E+00  0.00000000E+00  0.00000000E+00
%FLAG SCNB_SCALE_FACTOR                                                         
%FORMAT(5E16.8)                                                                 
  2.00000000E+00  2.00000000E+00  2.00000000E+00  2.00000000E+00  2.00000000E+00
  2.00000000E+00  2.00000000E+00  2.00000000E+00  2.00000000E+00  2.00000000E+00
  2.00000000E+00  2.00000000E+00  0.00000000E+00  0.00000000E+00
%FLAG SOLTY                                                                     
%FORMAT(5E16.8)                                                                 
  0.00000000E+00  0.00000000E+00  0.00000000E+00  0.00000000E+00  0.00000000E+00
  0.00000000E+00  0.00000000E+00  0.00000000E+00  0.00000000E+00  0.00000000E+00
  0.00000000E+00  0.00000000E+00  0.00000000E+00
%FLAG LENNARD_JONES_ACOEF                                                       
%FORMAT(5E16.8)                                                                 
  6.96551276E+05  6.80770393E+05  6.65027384E+05  7.69642101E+05  7.52793431E+05
  8.49322032E+05  7.01106848E+05  6.84147402E+05  7.76656876E+05  7.02078680E+05
  5.17507491E+05  5.04173226E+05  5.74782316E+05  5.15491878E+05  3.76435470E+05
  8.43969952E+05  8.25619280E+05  9.31115275E+05  8.52084164E+05  6.30925504E+05
  1.02073671E+06  8.15855629E+05  7.97851392E+05  9.00584118E+05  8.22806637E+05
  6.08567325E+05  9.87370297E+05  9.54875571E+05  5.63013422E+04  5.43787653E+04
  6.34160397E+04  5.45183252E+04  3.86646725E+04  6.97998263E+04  6.69267216E+04
  3.39005767E+03  7.52549148E+04  7.29041169E+04  8.43518904E+04  7.35931098E+04
  5.27277400E+04  9.27554496E+04  8.91217989E+04  4.88692384E+03  6.90855956E+03
  1.71458823E+03  1.61327254E+03  2.01475241E+03  1.52360475E+03  9.87857350E+02
  2.23577481E+03  2.10567903E+03  5.24570081E+01  9.04434904E+01  1.34728399E-01
%FLAG LENNARD_JONES_BCOEF                                                       
%FORMAT(5E16.8)                                                                 
  5.24668528E+02  5.32561965E+02  5.40444287E+02  5.44830041E+02  5.53242961E+02
  5.65406768E+02  5.97113873E+02  6.05621447E+02  6.20851625E+02  6.77820248E+02
  4.98871431E+02  5.05570298E+02  5.19385932E+02  5.64804067E+02  4.69350655E+02
  5.90251928E+02  5.99411656E+02  6.12468585E+02  6.72777963E+02  5.62969425E+02
  6.63431737E+02  5.85909304E+02  5.94902905E+02  6.08126668E+02  6.67466109E+02
  5.58212938E+02  6.58763033E+02  6.54052181E+02  1.01040256E+02  1.01955600E+02
  1.05935811E+02  1.12788003E+02  9.23664132E+01  1.14981426E+02  1.13671113E+02
  1.67944276E+01  1.09570372E+02  1.10729433E+02  1.14599119E+02  1.22913863E+02
  1.01173582E+02  1.24325688E+02  1.23036209E+02  1.89134207E+01  2.10929191E+01
  1.46824710E+01  1.46229317E+01  1.57231024E+01  1.57004457E+01  1.22938581E+01
  1.71355763E+01  1.67892226E+01  1.73959275E+00  2.14252117E+00  7.34107347E-02
%FLAG BONDS_INC_HYDROGEN                                                        
%FORMAT(10I8)                                                                   
      66     126      11      66     120      11      66     123      11      69
     132      11      69     129      11      69     135      11      72     141
      11      72     138      11      72     144      11      75     147      11
      75     153      11      75     150      11      81     156      13      84
     159      13      90     162      13      93     165      13      96     168
      15      96     171      15     102     174      13     105     177      13
     111     180      13     114     183      13     117     186      15     117
     189      15
%FLAG BONDS_WITHOUT_HYDROGEN                                                    
%FORMAT(10I8)                                                                   
       0      18       1       0      12       2       0      30       3       3
      33       3       3      15       2       3      21       1       6      48
       4       6      12       5       6      36       6       9      39       6
       9      15       5       9      51       4      12      24       7      15
      27       7      24      54       8      27      57       8      30      60
       6      30      72       9      33      75       9      33      63       6
      36      66       9      36      60       6      39      63       6      39
      69       9      42      60       4      45      63       4      54      78
      10      57      99      10      78      81      12      78      93      12
      81      84      12      84      87      12      87      90      12      87
      96      14      90      93      12      99     102      12      99     114
      12     102     105      12     105     108      12     108     117      14
     108     111      12     111     114      12
%FLAG ANGLES_INC_HYDROGEN                                                       
%FORMAT(10I8)                                                                   
      30      72     141      17      30      72     138      17      30      72
     144      17      33      75     147      17      33      75     153      17
      33      75     150      17      36      66     126      17      36      66
     120      17      36      66     123      17      39      69     132      17
      39      69     129      17      39      69     135      17      78      81
     156      19      78      93     165      19      81      84     159      19
      84      81     156      19      87      84     159      19      87      90
     162      19      87      96     168      22      87      96     171      22
      90      93     165      19      93      90     162      19      99     102
     174      19      99     114     183      19     102     105     177      19
     105     102     174      19     108     117     186      22     108     117
     189      22     108     105     177      19     108     111     180      19
     111     114     183      19     114     111     180      19     120      66
     126      23     120      66     123      23     123      66     126      23
     129      69     132      23     129      69     135      23     132      69
     135      23     138      72     141      23     138      72     144      23
     141      72     144      23     147      75     153      23     147      75
     150      23     150      75     153      23     168      96     171      24
     186     117     189      24
%FLAG ANGLES_WITHOUT_HYDROGEN                                                   
%FORMAT(10I8)                                                                   
       0      12      24       1       0      12       6       2       0      30
      60       3       0      30      72       4       3      33      75       4
       3      33      63       3       3      15       9       2       3      15
      27       1       6      12      24       5       6      36      66       6
       6      36      60       7       9      39      63       7       9      39
      69       6       9      15      27       5      12      24      54       8
      12       0      18       9      12       0      30      10      12       6
      48      11      12       6      36      12      15       9      39      12
      15       9      51      11      15       3      33      10      15       3
      21       9      15      27      57       8      18       0      30      13
      21       3      33      13      24      54      78      14      27      57
      99      14      30      60      36      15      30      60      42      16
      33      63      45      16      33      63      39      15      36       6
      48      16      36      60      42      16      39      63      45      16
      39       9      51      16      54      78      81      18      54      78
      93      18      57      99     102      18      57      99     114      18
      60      36      66       6      60      30      72       6      63      33
      75       6      63      39      69       6      78      81      84      20
      78      93      90      20      81      78      93      20      81      84
      87      20      84      87      90      20      84      87      96      21
      87      90      93      20      90      87      96      21      99     102
     105      20      99     114     111      20     102     105     108      20
     102      99     114      20     105     108     117      21     105     108
     111      20     108     111     114      20     111     108     117      21
%FLAG DIHEDRALS_INC_HYDROGEN                                                    
%FORMAT(10I8)                                                                   
       0      30      72     141       4       0      30      72     138       4
       0      30      72     144       4       3      33      75     147       4
       3      33      75     153       4       3      33      75     150       4
       6      36      66     126       6       6      36      66     120       6
       6      36      66     123       6       9      39      69     132       6
       9      39      69     129       6       9      39      69     135       6
      54      78      81     156      11      54      78      93     165      11
      57      99     102     174      11      57      99     114     183      11
      60      36      66     126       6      60      36      66     120       6
      60      36      66     123       6      60      30      72     141       6
      60      30      72     138       6      60      30      72     144       6
      63      33      75     147       6      63      33      75     153       6
      63      33      75     150       6      63      39      69     132       6
      63      39      69     129       6      63      39      69     135       6
      78      81      84     159      11      78      93      90     162      11
      81      78      93     165      11      84      87      90     162      11
      84      87      96     168      12      84      87      96     171      12
      87      84      81     156      11      87      90      93     165      11
      90      87      84     159      11      90      87      96     168      12
      90      87      96     171      12      93      78      81     156      11
      96      87      84     159      11      96      87      90     162      11
      99     102     105     177      11      99     114     111     180      11
     102      99     114     183      11     105     108     117     186      12
     105     108     117     189      12     105     108     111     180      11
     108     105     102     174      11     108     111     114     183      11
     111     108     117     186      12     111     108     117     189      12
     111     108     105     177      11     114      99     102     174      11
     117     108     105     177      11     117     108     111     180      11
     156      81      84     159      11     162      90      93     165      11
     174     102     105     177      11     180     111     114     183      11
      78      84     -81    -156      13      81      87     -84    -159      13
      87      93     -90    -162      13      78      90     -93    -165      13
      87     168     -96    -171      13      99     105    -102    -174      13
     102     108    -105    -177      13     108     114    -111    -180      13
      99     111    -114    -183      13     108     186    -117    -189      13
%FLAG DIHEDRALS_WITHOUT_HYDROGEN                                                
%FORMAT(10I8)                                                                   
       0      12      24      54       1       0      12       6      48       2
       0      12       6      36       2       0      30     -60      36       3
       0      30      60      42       3       3      33      63      45       3
       3      33      63      39       3       3      15      -9      39       2
       3      15       9      51       2       3      15      27      57       1
       6      12      24      54       1      18       0      12       6       5
      30       0      12       6       5       6      36     -60      30       3
       6      36      60      42       3       9      39      63      45       3
       9      39      63      33       3       9      15      -3      33       5
       9      15       3      21       5       9      15      27      57       1
      12      24      54      78       7      12      24     -54      78       8
      12       0      30      60       9      12       0      30      72       9
      12       6      36      66       3      12       6     -36      60       3
      15       9      39      63       3      15       9      39      69       3
      15       3      33      75       9      15       3     -33      63       9
      15      27      57      99       7      15      27     -57      99       8
      18       0      12      24       5      18       0      30      60       9
      18       0      30      72       9      21       3      33      75       9
      21       3      33      63       9      21       3      15      27       5
      24      54      78      81      10      24      54      78      93      10
      30       0      12      24       5      24      12       6      48       2
      24      12       6      36       2      27      15       9      39       2
      27      15       9      51       2      27      15       3      33       5
      27      57      99     102      10      27      57      99     114      10
      30      60      36      66       3      33      63      39      69       3
      36      60      30      72       3      39      63      33      75       3
      42      60      36      66       3      42      60      30      72       3
      45      63      33      75       3      45      63      39      69       3
      48       6      36      66       3      48       6      36      60       3
      51       9      39      63       3      51       9      39      69       3
      54      78      81      84      11      54      78      93      90      11
      57      99     102     105      11      57      99     114     111      11
      78      81      84      87      11      78      93     -90      87      11
      81      78      93      90      11      81      84     -87      90      11
      81      84      87      96      11      84      81      78      93      11
      84      87     -90      93      11      93      90      87      96      11
      99     102     105     108      11      99     114    -111     108      11
     102     105     108     117      11     102     105     108     111      11
     102      99    -114     111      11     105     108     111     114      11
     105     102     -99     114      11     114     111     108     117      11
      18       0     -30     -12      13      15      33      -3     -21      13
      12      36      -6     -48      14      15      39      -9     -51      14
       6       0     -12     -24      13       9       3     -15     -27      13
       0      30     -72     -60      13      63      75     -33      -3      13
       6      60     -36     -66      13       9      63     -39     -69      13
      30      36     -60     -42      14      33      39     -63     -45      14
      81      93     -78     -54      13      84      90     -87     -96      13
     102     114     -99     -57      13     105     111    -108    -117      13
%FLAG EXCLUDED_ATOMS_LIST                                                       
%FORMAT(10I8)                                                                   
       3       5       7       9      11      13      15      17      19      21
      25      47      48      49       4       6       8      10      12      14
      16      18      20      22      26      50      51      52       5       7
       9      11      13      15      17      19      21      23      41      42
      43       6       8      10      12      14      16      18      20      22
      24      44      45      46       7       9      11      13      17      19
      21      23      25      27       8      10      12      14      18      20
      22      24      26      34       9      11      21      25      10      12
      22      26      11      13      17      19      27      28      32      12
      14      18      20      34      35      39      13      15      21      23
      25      47      48      49      14      16      22      24      26      50
      51      52      15      17      21      23      25      41      42      43
      16      18      22      24      26      44      45      46      21      23
      25      22      24      26      21      23      22      24      27      28
      29      31      32      53      56      34      35      36      38      39
      59      62      23      25      41      42      43      47      48      49
      24      26      44      45      46      50      51      52      41      42
      43      44      45      46      47      48      49      50      51      52
      28      29      30      31      32      53      54      55      56      29
      30      31      32      33      53      54      56      30      31      32
      33      53      54      55      57      58      31      32      33      53
      54      55      56      57      58      32      33      54      55      56
      57      58      33      53      55      56      54      55      57      58
      35      36      37      38      39      59      60      61      62      36
      37      38      39      40      59      60      62      37      38      39
      40      59      60      61      63      64      38      39      40      59
      60      61      62      63      64      39      40      60      61      62
      63      64      40      59      61      62      60      61      63      64
      42      43      43       0      45      46      46       0      48      49
      49       0      51      52      52       0      54       0      56       0
      58       0      60       0      62       0      64       0
%FLAG HBOND_ACOEF                                                               
%FORMAT(5E16.8)                                                                 

%FLAG HBOND_BCOEF                                                               
%FORMAT(5E16.8)                                                                 

%FLAG HBCUT                                                                     
%FORMAT(5E16.8)                                                                 

%FLAG AMBER_ATOM_TYPE                                                           
%FORMAT(20a4)                                                                   
cc  cc  c   c   cc  cc  n1  n1  nf  nf  n   n   n   n   o   o   o   o   n2  n2  
c   c   c3  c3  c3  c3  ca  ca  ca  ca  ca  ca  nv  ca  ca  ca  ca  ca  ca  nv  
h1  h1  h1  h1  h1  h1  h1  h1  h1  h1  h1  h1  ha  ha  ha  ha  hn  hn  ha  ha  
ha  ha  hn  hn  
%FLAG TREE_CHAIN_CLASSIFICATION                                                 
%FORMAT(20a4)                                                                   
BLA BLA BLA BLA BLA BLA BLA BLA BLA BLA BLA BLA BLA BLA BLA BLA BLA BLA BLA BLA 
BLA BLA BLA BLA BLA BLA BLA BLA BLA BLA BLA BLA BLA BLA BLA BLA BLA BLA BLA BLA 
BLA BLA BLA BLA BLA BLA BLA BLA BLA BLA BLA BLA BLA BLA BLA BLA BLA BLA BLA BLA 
BLA BLA BLA BLA 
%FLAG JOIN_ARRAY                                                                
%FORMAT(10I8)                                                                   
       0       0       0       0       0       0       0       0       0       0
       0       0       0       0       0       0       0       0       0       0
       0       0       0       0       0       0       0       0       0       0
       0       0       0       0       0       0       0       0       0       0
       0       0       0       0       0       0       0       0       0       0
       0       0       0       0       0       0       0       0       0       0
       0       0       0       0
%FLAG IROTAT                                                                    
%FORMAT(10I8)                                                                   
       0       0       0       0       0       0       0       0       0       0
       0       0       0       0       0       0       0       0       0       0
       0       0       0       0       0       0       0       0       0       0
       0       0       0       0       0       0       0       0       0       0
       0       0       0       0       0       0       0       0       0       0
       0       0       0       0       0       0       0       0       0       0
       0       0       0       0
%FLAG RADIUS_SET                                                                
%FORMAT(1a80)                                                                   
modified Bondi radii (mbondi)                                                   
%FLAG RADII                                                                     
%FORMAT(5E16.8)                                                                 
  1.70000000E+00  1.70000000E+00  1.70000000E+00  1.70000000E+00  1.70000000E+00
  1.70000000E+00  1.55000000E+00  1.55000000E+00  1.55000000E+00  1.55000000E+00
  1.55000000E+00  1.55000000E+00  1.55000000E+00  1.55000000E+00  1.50000000E+00
  1.50000000E+00  1.50000000E+00  1.50000000E+00  1.55000000E+00  1.55000000E+00
  1.70000000E+00  1.70000000E+00  1.70000000E+00  1.70000000E+00  1.70000000E+00
  1.70000000E+00  1.70000000E+00  1.70000000E+00  1.70000000E+00  1.70000000E+00
  1.70000000E+00  1.70000000E+00  1.55000000E+00  1.70000000E+00  1.70000000E+00
  1.70000000E+00  1.70000000E+00  1.70000000E+00  1.70000000E+00  1.55000000E+00
  1.30000000E+00  1.30000000E+00  1.30000000E+00  1.30000000E+00  1.30000000E+00
  1.30000000E+00  1.30000000E+00  1.30000000E+00  1.30000000E+00  1.30000000E+00
  1.30000000E+00  1.30000000E+00  1.30000000E+00  1.30000000E+00  1.30000000E+00
  1.30000000E+00  1.30000000E+00  1.30000000E+00  1.30000000E+00  1.30000000E+00
  1.30000000E+00  1.30000000E+00  1.30000000E+00  1.30000000E+00
%FLAG SCREEN                                                                    
%FORMAT(5E16.8)                                                                 
  7.20000000E-01  7.20000000E-01  7.20000000E-01  7.20000000E-01  7.20000000E-01
  7.20000000E-01  7.90000000E-01  7.90000000E-01  7.90000000E-01  7.90000000E-01
  7.90000000E-01  7.90000000E-01  7.90000000E-01  7.90000000E-01  8.50000000E-01
  8.50000000E-01  8.50000000E-01  8.50000000E-01  7.90000000E-01  7.90000000E-01
  7.20000000E-01  7.20000000E-01  7.20000000E-01  7.20000000E-01  7.20000000E-01
  7.20000000E-01  7.20000000E-01  7.20000000E-01  7.20000000E-01  7.20000000E-01
  7.20000000E-01  7.20000000E-01  7.90000000E-01  7.20000000E-01  7.20000000E-01
  7.20000000E-01  7.20000000E-01  7.20000000E-01  7.20000000E-01  7.90000000E-01
  8.50000000E-01  8.50000000E-01  8.50000000E-01  8.50000000E-01  8.50000000E-01
  8.50000000E-01  8.50000000E-01  8.50000000E-01  8.50000000E-01  8.50000000E-01
  8.50000000E-01  8.50000000E-01  8.50000000E-01  8.50000000E-01  8.50000000E-01
  8.50000000E-01  8.50000000E-01  8.50000000E-01  8.50000000E-01  8.50000000E-01
  8.50000000E-01  8.50000000E-01  8.50000000E-01  8.50000000E-01
%FLAG IPOL                                                                      
%FORMAT(1I8)                                                                    
       0
