; PDL_GMX.top created by acpype (v: 2022.6.6) on Sun Apr 26 17:04:31 2026

[ defaults ]
; nbfunc        comb-rule       gen-pairs       fudgeLJ fudgeQQ
1               2               yes             0.5     0.8333333333

; Include PDL_GMX.itp topology
#include "PDL_GMX.itp"

; Ligand position restraints
#ifdef POSRES_LIG
#include "posre_PDL_H_optimized_nopd.itp"
#endif

[ system ]
 PDL

[ molecules ]
; Compound        nmols
 PDL              1     
