PDL_H_optimized_nopd.pdb
    64
  20.2230000  37.8490000  20.6020000  23.1870000  41.8950000  17.7620000
  21.1430000  35.4460000  20.6730000  22.2720000  44.2930000  17.6860000
  21.3310000  36.9090000  20.4420000  22.0770000  42.8340000  17.9190000
  20.2280000  39.0890000  20.2650000  23.1830000  40.6560000  18.0980000
  22.5760000  37.2470000  20.1990000  20.8320000  42.4980000  18.1630000
  19.0840000  37.3260000  21.2770000  24.3270000  42.4200000  17.0880000
  19.8980000  35.0930000  21.1960000  23.5170000  44.6510000  17.1750000
  17.8540000  35.5660000  22.0700000  25.5770000  44.1660000  16.3070000
  21.9940000  34.6190000  20.4110000  21.4300000  45.1340000  17.9320000
  22.9550000  38.4650000  19.9310000  20.4530000  41.2790000  18.4310000
  18.8730000  35.9880000  21.5530000  24.5490000  43.7590000  16.8180000
  19.6240000  33.6800000  21.4550000  23.7340000  46.0800000  16.9470000
  18.0330000  38.2730000  21.6470000  25.3750000  41.4690000  16.7170000
  24.3310000  38.6540000  20.0580000  25.2390000  37.5640000  19.9910000
  26.5960000  37.7710000  20.1200000  27.1210000  39.0730000  20.3540000
  26.2120000  40.1510000  20.4550000  24.8500000  39.9490000  20.2990000
  28.4620000  39.2640000  20.5000000  19.0770000  41.0900000  18.3040000
  18.5590000  39.7940000  18.0660000  17.1970000  39.5910000  17.9110000
  16.2880000  40.6700000  18.0100000  16.8120000  41.9720000  18.2420000
  18.1690000  42.1800000  18.3690000  14.9470000  40.4790000  17.8640000
  20.4880000  33.1060000  21.1060000  19.4620000  33.5120000  22.5300000
  18.7130000  33.3680000  20.9260000  24.7500000  46.2130000  16.5670000
  23.0010000  46.4620000  16.2220000  23.5920000  46.6320000  17.8870000
  18.4690000  39.1020000  22.2210000  17.5630000  38.7020000  20.7500000
  17.2900000  37.7340000  22.2420000  26.1150000  42.0020000  16.1130000
  25.8500000  41.0460000  17.6140000  24.9320000  40.6370000  16.1540000
  24.8380000  36.5650000  19.8210000  27.2840000  36.9250000  20.0380000
  26.5890000  41.1550000  20.6710000  24.1580000  40.7790000  20.4230000
  29.1100000  38.4980000  20.3770000  28.8460000  40.1940000  20.5860000
  19.2510000  38.9640000  17.9430000  16.8200000  38.5880000  17.6970000
  16.1240000  42.8180000  18.3220000  18.5700000  43.1790000  18.5370000
  14.5620000  39.5480000  17.7800000  14.2990000  41.2440000  17.9860000
