; PDL_H_optimized_nopd_GMX_OPLS.top created by acpype (v: 2022.6.6) on Sun Apr 26 17:04:31 2026

; Include forcefield parameters
#include "ffoplsaa.itp"

; Include PDL_H_optimized_nopd_GMX.itp topology
#include "PDL_H_optimized_nopd_GMX.itp"

; Ligand position restraints
#ifdef POSRES_LIG
#include "posre_PDL_H_optimized_nopd.itp"
#endif

[ system ]
 PDL_H_optimized_nopd

[ molecules ]
; Compound        nmols
 PDL_H_optimized_nopd 1     
